# Outliers,Original Index,Temperature (K),Electrical Resistivity (Ohm m),Seebeck Coefficient (V/K),Thermal Conductivity (W/(m K)),Figure of Merit,Thermopower (V/K),Thermal Conductivity x Figure of Merit (W/m K),Power Factor (W/(K^2 m)),Formula,Series,Series Index,Family,Electrical Conductivity (S/m),Preparative Route,Final Form,Authors,DOI,Comments,Cell Volume (A^3),Formula Units per Cell,Atoms per Formula Unit,Total Atoms Per Unit Cell,Average Atomic Volume,Author of Unit Cell,Unit Cell DOI,ICSD ID,Electronic over Total Thermal Conductivity,Space Group,Number of Symmetry Elements
,982,400,0.000187,0.000152,1.24,0.03985509746,0.000152,0.04942032086,0.0001235508021,Ca2.85Na0.15AlSb3,Ca3-xNaxAlSb3,0.15,Ca3AlSb3,,"solid state reaction, Ar",polycrystalline,Zevalkink2011EES,http://dx.doi.org/10.1039/c0ee00517g,,822.88,4,7,28,29.38857143,Cordier,http://dx.doi.org/10.1039/C0EE00517G,36363,0.04209073659,62,8
,983,700,0.000122,0.000215,0.84,0.3157445355,0.000215,0.2652254098,0.0003788934426,Ca2.85Na0.15AlSb3,Ca3-xNaxAlSb3,0.15,Ca3AlSb3,,"solid state reaction, Ar",polycrystalline,Zevalkink2011EES,http://dx.doi.org/10.1039/c0ee00517g,,822.88,4,7,28,29.38857143,Cordier,http://dx.doi.org/10.1039/C0EE00517G,36363,0.1666666667,62,8
,984,1000,0.000125,0.000243,0.68,0.6946941176,0.000243,0.472392,0.000472392,Ca2.85Na0.15AlSb3,Ca3-xNaxAlSb3,0.15,Ca3AlSb3,,"solid state reaction, Ar",polycrystalline,Zevalkink2011EES,http://dx.doi.org/10.1039/c0ee00517g,,822.88,4,7,28,29.38857143,Cordier,http://dx.doi.org/10.1039/C0EE00517G,36363,0.2870588235,62,8
,985,300,0.000475,-0.000191,5.69,0.004049320137,0.000191,0.02304063158,0.00007680210526,Fe0.998Co0.002Si2,(Fe0.998Co0.002Si2)1-x(Y2O3)x,0,FeSi2,,"arc-melted, Ar",polycrystalline,Ito2006JAC,http://dx.doi.org/10.1016/j.jallcom.2005.04.060,,601.91,16,3,48,12.53979167,Dusausoy,http://dx.doi.org/10.1107/S0567740871003765 ,9119,0.002708352604,64,16
,986,400,0.00026,-0.000183,5.34,0.009648228176,0.000183,0.05152153846,0.0001288038462,Fe0.998Co0.002Si2,(Fe0.998Co0.002Si2)1-x(Y2O3)x,0,FeSi2,,"arc-melted, Ar",polycrystalline,Ito2006JAC,http://dx.doi.org/10.1016/j.jallcom.2005.04.060,,601.91,16,3,48,12.53979167,Dusausoy,http://dx.doi.org/10.1107/S0567740871003765 ,9119,0.007029674445,64,16
,987,700,0.000123,-0.0001806,4.9,0.03788195122,0.0001806,0.185621561,0.0002651736585,Fe0.998Co0.002Si2,(Fe0.998Co0.002Si2)1-x(Y2O3)x,0,FeSi2,,"arc-melted, Ar",polycrystalline,Ito2006JAC,http://dx.doi.org/10.1016/j.jallcom.2005.04.060,,601.91,16,3,48,12.53979167,Dusausoy,http://dx.doi.org/10.1107/S0567740871003765 ,9119,0.02833914053,64,16
,988,1000,0.0000605,-0.0000873,5.02,0.02509397122,0.0000873,0.1259717355,0.0001259717355,Fe0.998Co0.002Si2,(Fe0.998Co0.002Si2)1-x(Y2O3)x,0,FeSi2,,"arc-melted, Ar",polycrystalline,Ito2006JAC,http://dx.doi.org/10.1016/j.jallcom.2005.04.060,,601.91,16,3,48,12.53979167,Dusausoy,http://dx.doi.org/10.1107/S0567740871003765 ,9119,0.08033979783,64,16
,989,300,0.001275,-0.000318,4.59,0.005183852364,0.000318,0.02379388235,0.00007931294118,Fe0.978Co0.00196Si1.96Y0.04O0.06,(Fe0.998Co0.002Si2)1-x(Y2O3)x,2,FeSi2,,"arc-melted, Ar",polycrystalline,Ito2006JAC,http://dx.doi.org/10.1016/j.jallcom.2005.04.060,,601.91,16,3,48,12.53979167,Dusausoy,http://dx.doi.org/10.1107/S0567740871003765 ,9119,0.001250800974,64,16
,990,400,0.000563,-0.000327,4.09,0.01857478492,0.000327,0.07597087034,0.0001899271758,Fe0.978Co0.00196Si1.96Y0.04O0.06,(Fe0.998Co0.002Si2)1-x(Y2O3)x,2,FeSi2,,"arc-melted, Ar",polycrystalline,Ito2006JAC,http://dx.doi.org/10.1016/j.jallcom.2005.04.060,,601.91,16,3,48,12.53979167,Dusausoy,http://dx.doi.org/10.1107/S0567740871003765 ,9119,0.004238557848,64,16
,991,700,0.00024,-0.000287,3.95,0.06082099156,0.000287,0.2402429167,0.0003432041667,Fe0.978Co0.00196Si1.96Y0.04O0.06,(Fe0.998Co0.002Si2)1-x(Y2O3)x,2,FeSi2,,"arc-melted, Ar",polycrystalline,Ito2006JAC,http://dx.doi.org/10.1016/j.jallcom.2005.04.060,,601.91,16,3,48,12.53979167,Dusausoy,http://dx.doi.org/10.1107/S0567740871003765 ,9119,0.01801687764,64,16
,992,1000,0.000122,-0.0001008,4.21,0.01978240723,0.0001008,0.08328393443,0.00008328393443,Fe0.978Co0.00196Si1.96Y0.04O0.06,(Fe0.998Co0.002Si2)1-x(Y2O3)x,2,FeSi2,,"arc-melted, Ar",polycrystalline,Ito2006JAC,http://dx.doi.org/10.1016/j.jallcom.2005.04.060,,601.91,16,3,48,12.53979167,Dusausoy,http://dx.doi.org/10.1107/S0567740871003765 ,9119,0.04750593824,64,16
,993,300,0.0027,-0.000226,2.86,0.001984304584,0.000226,0.005675111111,0.00001891703704,Fe0.978Co0.00196Si1.96Y0.12O0.18,(Fe0.998Co0.002Si2)1-x(Y2O3)x,6,FeSi2,,"arc-melted, Ar",polycrystalline,Ito2006JAC,http://dx.doi.org/10.1016/j.jallcom.2005.04.060,,601.91,16,3,48,12.53979167,Dusausoy,http://dx.doi.org/10.1107/S0567740871003765 ,9119,0.0009479409479,64,16
,994,400,0.001495,-0.000227,2.64,0.005222357353,0.000227,0.01378702341,0.00003446755853,Fe0.978Co0.00196Si1.96Y0.12O0.18,(Fe0.998Co0.002Si2)1-x(Y2O3)x,6,FeSi2,,"arc-melted, Ar",polycrystalline,Ito2006JAC,http://dx.doi.org/10.1016/j.jallcom.2005.04.060,,601.91,16,3,48,12.53979167,Dusausoy,http://dx.doi.org/10.1107/S0567740871003765 ,9119,0.002472889429,64,16
,995,700,0.000518,-0.000222,2.96,0.0225,0.000222,0.0666,0.00009514285714,Fe0.978Co0.00196Si1.96Y0.12O0.18,(Fe0.998Co0.002Si2)1-x(Y2O3)x,6,FeSi2,,"arc-melted, Ar",polycrystalline,Ito2006JAC,http://dx.doi.org/10.1016/j.jallcom.2005.04.060,,601.91,16,3,48,12.53979167,Dusausoy,http://dx.doi.org/10.1107/S0567740871003765 ,9119,0.0111395179,64,16
,996,1000,0.000214,-0.000068,3.22,0.006710396471,0.000068,0.02160747664,0.00002160747664,Fe0.978Co0.00196Si1.96Y0.12O0.18,(Fe0.998Co0.002Si2)1-x(Y2O3)x,6,FeSi2,,"arc-melted, Ar",polycrystalline,Ito2006JAC,http://dx.doi.org/10.1016/j.jallcom.2005.04.060,,601.91,16,3,48,12.53979167,Dusausoy,http://dx.doi.org/10.1107/S0567740871003765 ,9119,0.03540953155,64,16
,997,300,0.004571,0.00047,1.54,0.009414234857,0.00047,0.01449792168,0.0000483264056,Ca5Al2Sb6,Ca5-xNaxAl2Sb6,0,Ca3AlSb3,,"solid state reaction, Ar",polycrystalline,Toberer2010AFM,http://dx.doi.org/10.1002/adfm.201000970,,770.68,2,13,26,29.64153846,Yan,http://dx.doi.org/10.1039/C1JM11463H,183853,0.001039870215,55,8
,998,400,0.00409,0.000463,1.23,0.01704486453,0.000463,0.02096518337,0.00005241295844,Ca5Al2Sb6,Ca5-xNaxAl2Sb6,0,Ca3AlSb3,,"solid state reaction, Ar",polycrystalline,Toberer2010AFM,http://dx.doi.org/10.1002/adfm.201000970,,770.68,2,13,26,29.64153846,Yan,http://dx.doi.org/10.1039/C1JM11463H,183853,0.001940087861,55,8
,999,700,0.002349,0.00039,0.764,0.05932679385,0.00039,0.0453256705,0.00006475095785,Ca5Al2Sb6,Ca5-xNaxAl2Sb6,0,Ca3AlSb3,,"solid state reaction, Ar",polycrystalline,Toberer2010AFM,http://dx.doi.org/10.1002/adfm.201000970,,770.68,2,13,26,29.64153846,Yan,http://dx.doi.org/10.1039/C1JM11463H,183853,0.009517250295,55,8
,1000,300,0.000332,0.000193,1.49,0.02258975499,0.000193,0.03365873494,0.0001121957831,Ca4.95Na0.05Al2Sb6,Ca5-xNaxAl2Sb6,0.05,Ca3AlSb3,,"solid state reaction, Ar",polycrystalline,Toberer2010AFM,http://dx.doi.org/10.1002/adfm.201000970,,770.68,2,13,26,29.64153846,Yan,http://dx.doi.org/10.1039/C1JM11463H,183853,0.01479744481,55,8
,1001,400,0.000224,0.0002199,1.2,0.07195834821,0.0002199,0.08635001786,0.0002158750446,Ca4.95Na0.05Al2Sb6,Ca5-xNaxAl2Sb6,0.05,Ca3AlSb3,,"solid state reaction, Ar",polycrystalline,Toberer2010AFM,http://dx.doi.org/10.1002/adfm.201000970,,770.68,2,13,26,29.64153846,Yan,http://dx.doi.org/10.1039/C1JM11463H,183853,0.03630952381,55,8
,1002,700,0.000181,0.0002617,0.833,0.3179668973,0.0002617,0.2648664254,0.0003783806077,Ca4.95Na0.05Al2Sb6,Ca5-xNaxAl2Sb6,0.05,Ca3AlSb3,,"solid state reaction, Ar",polycrystalline,Toberer2010AFM,http://dx.doi.org/10.1002/adfm.201000970,,770.68,2,13,26,29.64153846,Yan,http://dx.doi.org/10.1039/C1JM11463H,183853,0.1132828822,55,8
,1003,300,0.0000506,0.0001427,1.45,0.08326273681,0.0001427,0.1207309684,0.0004024365613,Ca4.75Na0.25Al2Sb6,Ca5-xNaxAl2Sb6,0.25,Ca3AlSb3,,"solid state reaction, Ar",polycrystalline,Toberer2010AFM,http://dx.doi.org/10.1002/adfm.201000970,,770.68,2,13,26,29.64153846,Yan,http://dx.doi.org/10.1039/C1JM11463H,183853,0.09976829767,55,8
,1004,400,0.0000544,0.000161,1.16,0.1643065416,0.000161,0.1905955882,0.0004764889706,Ca4.75Na0.25Al2Sb6,Ca5-xNaxAl2Sb6,0.25,Ca3AlSb3,,"solid state reaction, Ar",polycrystalline,Toberer2010AFM,http://dx.doi.org/10.1002/adfm.201000970,,770.68,2,13,26,29.64153846,Yan,http://dx.doi.org/10.1039/C1JM11463H,183853,0.1546653144,55,8
,1005,700,0.0000733,0.0002008,0.82,0.4695778791,0.0002008,0.3850538608,0.0005500769441,Ca4.75Na0.25Al2Sb6,Ca5-xNaxAl2Sb6,0.25,Ca3AlSb3,,"solid state reaction, Ar",polycrystalline,Toberer2010AFM,http://dx.doi.org/10.1002/adfm.201000970,,770.68,2,13,26,29.64153846,Yan,http://dx.doi.org/10.1039/C1JM11463H,183853,0.2841646425,55,8
,1006,1000,0.0000939,0.000207,0.703,0.6491122028,0.000207,0.4563258786,0.0004563258786,Ca4.75Na0.25Al2Sb6,Ca5-xNaxAl2Sb6,0.25,Ca3AlSb3,,"solid state reaction, Ar",polycrystalline,Toberer2010AFM,http://dx.doi.org/10.1002/adfm.201000970,,770.68,2,13,26,29.64153846,Yan,http://dx.doi.org/10.1039/C1JM11463H,183853,0.3696314441,55,8
,1007,300,0.008878471482,-0.000413391,,,0.000413391,0.00577437634,0.00001924792113,Fe1.98Ti0.02O3,(Fe1-xMx)2O3,0.01,Fe2TiO3,,"solid state reaction, air",polycrystalline,Muta2002JAC,http://dx.doi.org/10.1016/S0925-8388(01)01804-7,,101.11,2,5,10,10.111,Harrison,http://dx.doi.org/10.2138/am.2010.3402,168009,,2,2
,1008,400,0.004919056918,-0.000402826,,,0.000402826,0.01319511353,0.00003298778383,Fe1.98Ti0.02O3,(Fe1-xMx)2O3,0.01,Fe2TiO3,,"solid state reaction, air",polycrystalline,Muta2002JAC,http://dx.doi.org/10.1016/S0925-8388(01)01804-7,,101.11,2,5,10,10.111,Harrison,http://dx.doi.org/10.2138/am.2010.3402,168009,,2,2
,1009,700,0.001797268152,-0.000370393,,,0.000370393,0.05343314073,0.00007633305818,Fe1.98Ti0.02O3,(Fe1-xMx)2O3,0.01,Fe2TiO3,,"solid state reaction, air",polycrystalline,Muta2002JAC,http://dx.doi.org/10.1016/S0925-8388(01)01804-7,,101.11,2,5,10,10.111,Harrison,http://dx.doi.org/10.2138/am.2010.3402,168009,,2,2
,1010,1000,0.001381087662,-0.000371867,,,0.000371867,0.1001276527,0.0001001276527,Fe1.98Ti0.02O3,(Fe1-xMx)2O3,0.01,Fe2TiO3,,"solid state reaction, air",polycrystalline,Muta2002JAC,http://dx.doi.org/10.1016/S0925-8388(01)01804-7,,101.11,2,5,10,10.111,Harrison,http://dx.doi.org/10.2138/am.2010.3402,168009,,2,2
,1011,300,0.00376396903,-0.000366462,7.82,0.001368757006,0.000366462,0.01070367979,0.00003567893263,Fe1.96Ti0.04O3,(Fe1-xMx)2O3,0.02,Fe2TiO3,,"solid state reaction, air",polycrystalline,Muta2002JAC,http://dx.doi.org/10.1016/S0925-8388(01)01804-7,,101.11,2,5,10,10.111,Harrison,http://dx.doi.org/10.2138/am.2010.3402,168009,2.486899795,2,2
,1012,400,0.002139234197,-0.000343857,6.87,0.003218108345,0.000343857,0.02210840433,0.00005527101082,Fe1.96Ti0.04O3,(Fe1-xMx)2O3,0.02,Fe2TiO3,,"solid state reaction, air",polycrystalline,Muta2002JAC,http://dx.doi.org/10.1016/S0925-8388(01)01804-7,,101.11,2,5,10,10.111,Harrison,http://dx.doi.org/10.2138/am.2010.3402,168009,6.641019389,2,2
,1013,700,0.0009422584049,-0.000322973,4.7,0.01648779569,0.000322973,0.07749263973,0.000110703771,Fe1.96Ti0.04O3,(Fe1-xMx)2O3,0.02,Fe2TiO3,,"solid state reaction, air",polycrystalline,Muta2002JAC,http://dx.doi.org/10.1016/S0925-8388(01)01804-7,,101.11,2,5,10,10.111,Harrison,http://dx.doi.org/10.2138/am.2010.3402,168009,38.56736681,2,2
,1014,1000,0.0007209961283,-0.000328378,3.54,0.04224856012,0.000328378,0.1495599028,0.0001495599028,Fe1.96Ti0.04O3,(Fe1-xMx)2O3,0.02,Fe2TiO3,,"solid state reaction, air",polycrystalline,Muta2002JAC,http://dx.doi.org/10.1016/S0925-8388(01)01804-7,,101.11,2,5,10,10.111,Harrison,http://dx.doi.org/10.2138/am.2010.3402,168009,95.59906215,2,2
,1015,300,0.004115209402,-0.000335012,6.39,0.001280410375,0.000335012,0.008181822296,0.00002727274099,Fe1.94Ti0.06O3,(Fe1-xMx)2O3,0.03,Fe2TiO3,,"solid state reaction, air",polycrystalline,Muta2002JAC,http://dx.doi.org/10.1016/S0925-8388(01)01804-7,,101.11,2,5,10,10.111,Harrison,http://dx.doi.org/10.2138/am.2010.3402,168009,2.783673427,2,2
,1016,400,0.002058985826,-0.000308722,5.93,0.003122389653,0.000308722,0.01851577064,0.00004628942661,Fe1.94Ti0.06O3,(Fe1-xMx)2O3,0.03,Fe2TiO3,,"solid state reaction, air",polycrystalline,Muta2002JAC,http://dx.doi.org/10.1016/S0925-8388(01)01804-7,,101.11,2,5,10,10.111,Harrison,http://dx.doi.org/10.2138/am.2010.3402,168009,7.993588128,2,2
,1017,700,0.0007587080719,-0.000292015,4.34,0.01812775099,0.000292015,0.07867443931,0.0001123920562,Fe1.94Ti0.06O3,(Fe1-xMx)2O3,0.03,Fe2TiO3,,"solid state reaction, air",polycrystalline,Muta2002JAC,http://dx.doi.org/10.1016/S0925-8388(01)01804-7,,101.11,2,5,10,10.111,Harrison,http://dx.doi.org/10.2138/am.2010.3402,168009,51.87085806,2,2
,1018,1000,0.0005756356457,-0.000294717,3.35,0.04504202311,0.000294717,0.1508907774,0.0001508907774,Fe1.94Ti0.06O3,(Fe1-xMx)2O3,0.03,Fe2TiO3,,"solid state reaction, air",polycrystalline,Muta2002JAC,http://dx.doi.org/10.1016/S0925-8388(01)01804-7,,101.11,2,5,10,10.111,Harrison,http://dx.doi.org/10.2138/am.2010.3402,168009,126.5311164,2,2
,1019,300,0.01,-0.000427641,,,0.000427641,0.005486304746,0.00001828768249,Fe1.98Sn0.02O3,(Fe1-xMx)2O3,0.01,Fe2TiO3,,"solid state reaction, air",polycrystalline,Muta2002JAC,http://dx.doi.org/10.1016/S0925-8388(01)01804-7,,303.23,6,5,30,10.10766667,Berry,http://dx.doi.org/10.1006/jssc.1997.7363,84729,,167,12
,1020,400,0.005154400054,-0.000413391,,,0.000413391,0.01326184364,0.00003315460909,Fe1.98Sn0.02O3,(Fe1-xMx)2O3,0.01,Fe2TiO3,,"solid state reaction, air",polycrystalline,Muta2002JAC,http://dx.doi.org/10.1016/S0925-8388(01)01804-7,,303.23,6,5,30,10.10766667,Berry,http://dx.doi.org/10.1006/jssc.1997.7363,84729,,167,12
,1021,700,0.002130165919,-0.000373833,,,0.000373833,0.04592401816,0.00006560574022,Fe1.98Sn0.02O3,(Fe1-xMx)2O3,0.01,Fe2TiO3,,"solid state reaction, air",polycrystalline,Muta2002JAC,http://dx.doi.org/10.1016/S0925-8388(01)01804-7,,303.23,6,5,30,10.10766667,Berry,http://dx.doi.org/10.1006/jssc.1997.7363,84729,,167,12
,1022,1000,0.001623049906,-0.00037457,,,0.00037457,0.08644385143,0.00008644385143,Fe1.98Sn0.02O3,(Fe1-xMx)2O3,0.01,Fe2TiO3,,"solid state reaction, air",polycrystalline,Muta2002JAC,http://dx.doi.org/10.1016/S0925-8388(01)01804-7,,303.23,6,5,30,10.10766667,Berry,http://dx.doi.org/10.1006/jssc.1997.7363,84729,,167,12
,1023,300,0.004674579171,-0.000364496,6.84,0.001246545591,0.000364496,0.008526371839,0.00002842123946,Fe1.96Sn0.04O3,(Fe1-xMx)2O3,0.02,Fe2TiO3,,"solid state reaction, air",polycrystalline,Muta2002JAC,http://dx.doi.org/10.1016/S0925-8388(01)01804-7,,303.23,6,5,30,10.10766667,Berry,http://dx.doi.org/10.1006/jssc.1997.7363,84729,2.289351404,167,12
,1024,400,0.002634296432,-0.000335504,6.17,0.002770164684,0.000335504,0.0170919161,0.00004272979026,Fe1.96Sn0.04O3,(Fe1-xMx)2O3,0.02,Fe2TiO3,,"solid state reaction, air",polycrystalline,Muta2002JAC,http://dx.doi.org/10.1016/S0925-8388(01)01804-7,,303.23,6,5,30,10.10766667,Berry,http://dx.doi.org/10.1006/jssc.1997.7363,84729,6.004820227,167,12
,1025,700,0.001074893182,-0.000317813,4.22,0.01558703808,0.000317813,0.06577730069,0.00009396757242,Fe1.96Sn0.04O3,(Fe1-xMx)2O3,0.02,Fe2TiO3,,"solid state reaction, air",polycrystalline,Muta2002JAC,http://dx.doi.org/10.1016/S0925-8388(01)01804-7,,303.23,6,5,30,10.10766667,Berry,http://dx.doi.org/10.1006/jssc.1997.7363,84729,37.65391232,167,12
,1026,1000,0.0008728897889,-0.000323464,3.08,0.038917217,0.000323464,0.1198650283,0.0001198650283,Fe1.96Sn0.04O3,(Fe1-xMx)2O3,0.02,Fe2TiO3,,"solid state reaction, air",polycrystalline,Muta2002JAC,http://dx.doi.org/10.1016/S0925-8388(01)01804-7,,303.23,6,5,30,10.10766667,Berry,http://dx.doi.org/10.1006/jssc.1997.7363,84729,90.75690909,167,12
,1027,300,0.00000588239,-0.0000265219,2.31,0.01552975937,0.0000265219,0.03587374416,0.0001195791472,Ba7SrAl16Si30,Ba8-ySryAl14Si32,,,,"flux (Al), dynamic vacuum",polycrystalline,Roudebush2011JSSC,http://dx.doi.org/10.1016/j.jssc.2011.02.027,,1193,1,55,55,21.69090909,Roudebush,http://dx.doi.org/10.1016/j.jssc.2011.02.027,380509,0.5386979049,223,48
,1028,400,0.00000660331,-0.000033747,2.33,0.02960824918,0.000033747,0.06898722059,0.0001724680515,Ba7SrAl16Si30,Ba8-ySryAl14Si32,,,,"flux (Al), dynamic vacuum",polycrystalline,Roudebush2011JSSC,http://dx.doi.org/10.1016/j.jssc.2011.02.027,,1193,1,55,55,21.69090909,Roudebush,http://dx.doi.org/10.1016/j.jssc.2011.02.027,380509,0.6343547708,223,48
,1029,700,0.0000087797,-0.0000531525,2.46,0.09156524226,0.0000531525,0.225250496,0.0003217864228,Ba7SrAl16Si30,Ba8-ySryAl14Si32,,,,"flux (Al), dynamic vacuum",polycrystalline,Roudebush2011JSSC,http://dx.doi.org/10.1016/j.jssc.2011.02.027,,1193,1,55,55,21.69090909,Roudebush,http://dx.doi.org/10.1016/j.jssc.2011.02.027,380509,0.7908116941,223,48
,1030,1000,0.000011173,-0.0000790454,2.57,0.217595686,0.0000790454,0.559220913,0.000559220913,Ba7SrAl16Si30,Ba8-ySryAl14Si32,,,,"flux (Al), dynamic vacuum",polycrystalline,Roudebush2011JSSC,http://dx.doi.org/10.1016/j.jssc.2011.02.027,,1193,1,55,55,21.69090909,Roudebush,http://dx.doi.org/10.1016/j.jssc.2011.02.027,380509,0.8497416472,223,48
,1031,300,0.0291889,-0.000752196,29.6,0.0001964598709,0.000752196,0.005815212177,0.00001938404059,Nd2CuO4,Nd2(Cu0.98M0.02)O4,,Nd2CuO4,,"solid state reaction, air",polycrystalline,Kurosaki2003JAC,http://dx.doi.org/10.1002/chin.200318015,,189.28,2,7,14,13.52,Kaluzhskikh,http://dx.doi.org/10.1016/j.jssc.2011.01.035,261375,0.000008472306161,139,32
,1032,400,0.0216164,-0.000618425,13.7,0.0005165711309,0.000618425,0.007077024493,0.00001769256123,Nd2CuO4,Nd2(Cu0.98M0.02)O4,,Nd2CuO4,,"solid state reaction, air",polycrystalline,Kurosaki2003JAC,http://dx.doi.org/10.1002/chin.200318015,,189.28,2,7,14,13.52,Kaluzhskikh,http://dx.doi.org/10.1016/j.jssc.2011.01.035,261375,0.00003295686419,139,32
,1033,700,0.000243757,-0.0000997041,4.19,0.006813228525,0.0000997041,0.02854742752,0.00004078203931,Nd2CuO4,Nd2(Cu0.98M0.02)O4,,Nd2CuO4,,"solid state reaction, air",polycrystalline,Kurosaki2003JAC,http://dx.doi.org/10.1002/chin.200318015,,189.28,2,7,14,13.52,Kaluzhskikh,http://dx.doi.org/10.1016/j.jssc.2011.01.035,261375,0.01672309848,139,32
,1034,1000,0.0000158489,0.000026268,3.94,0.01104990815,0.000026268,0.04353663813,0.00004353663813,Nd2CuO4,Nd2(Cu0.98M0.02)O4,,Nd2CuO4,,"solid state reaction, air",polycrystalline,Kurosaki2003JAC,http://dx.doi.org/10.1002/chin.200318015,,189.28,2,7,14,13.52,Kaluzhskikh,http://dx.doi.org/10.1016/j.jssc.2011.01.035,261375,0.3907459446,139,32
,1035,300,0.000594173,-0.000249392,9.811,0.003200811525,0.000249392,0.03140316187,0.0001046772062,Nd2Cu0.98Ni0.02O4,Nd2(Cu0.98M0.02)O4,,Nd2CuO4,,"solid state reaction, air",polycrystalline,Kurosaki2003JAC,http://dx.doi.org/10.1002/chin.200318015,,189.28,2,7,14,13.52,Kaluzhskikh,http://dx.doi.org/10.1016/j.jssc.2011.01.035,261375,0.001255697103,139,32
,1036,400,0.00038248,-0.000182676,8.03,0.004346089866,0.000182676,0.03489910163,0.00008724775407,Nd2Cu0.98Ni0.02O4,Nd2(Cu0.98M0.02)O4,,Nd2CuO4,,"solid state reaction, air",polycrystalline,Kurosaki2003JAC,http://dx.doi.org/10.1002/chin.200318015,,189.28,2,7,14,13.52,Kaluzhskikh,http://dx.doi.org/10.1016/j.jssc.2011.01.035,261375,0.003177792544,139,32
,1037,700,0.000216164,-0.0000985041,5.25,0.005984997636,0.0000985041,0.03142123759,0.00004488748227,Nd2Cu0.98Ni0.02O4,Nd2(Cu0.98M0.02)O4,,Nd2CuO4,,"solid state reaction, air",polycrystalline,Kurosaki2003JAC,http://dx.doi.org/10.1002/chin.200318015,,189.28,2,7,14,13.52,Kaluzhskikh,http://dx.doi.org/10.1016/j.jssc.2011.01.035,261375,0.01505030131,139,32
,1038,1000,0.000229546,-0.0000826705,3.902,0.00763034429,0.0000826705,0.02977360342,0.00002977360342,Nd2Cu0.98Ni0.02O4,Nd2(Cu0.98M0.02)O4,,Nd2CuO4,,"solid state reaction, air",polycrystalline,Kurosaki2003JAC,http://dx.doi.org/10.1002/chin.200318015,,189.28,2,7,14,13.52,Kaluzhskikh,http://dx.doi.org/10.1016/j.jssc.2011.01.035,261375,0.02724161382,139,32