# Outliers,Original Index,Temperature (K),Electrical Resistivity (Ohm m),Seebeck Coefficient (V/K),Thermal Conductivity (W/(m K)),Figure of Merit,Thermopower (V/K),Thermal Conductivity x Figure of Merit (W/m K),Power Factor (W/(K^2 m)),Formula,Series,Series Index,Family,Electrical Conductivity (S/m),Preparative Route,Final Form,Authors,DOI,Comments,Cell Volume (A^3),Formula Units per Cell,Atoms per Formula Unit,Total Atoms Per Unit Cell,Average Atomic Volume,Author of Unit Cell,Unit Cell DOI,ICSD ID,Electronic over Total Thermal Conductivity,Space Group,Number of Symmetry Elements
,165,700,0.0000351048,-0.000117923,1.98266,0.1398557513,0.000117923,0.2772864039,0.0003961234341,Ba0.4Sr0.6PbO3,Ba1-xSrxPbO3,0.6,BaPbO3,28486.13295,Solid state reaction (under oxygen),polycrystalline,Yasukawa1997JMSL,http://dx.doi.org/10.1023/A:1018515223271,,301.96,4,5,20,15.098,Ksepko,http://dx.doi.org/10.1080/01411590410001667635,151609,0.2453991863,62,8
,166,1000,0.0000093481,-0.0000524806,,,0.0000524806,0.2946281465,0.0002946281465,Ba0.4Sr0.6PbO3,Ba1-xSrxPbO3,0.6,BaPbO3,106973.6096,Solid state reaction (under oxygen),polycrystalline,Yasukawa1997JMSL,http://dx.doi.org/10.1023/A:1018515223271,,79.51,1,5,5,15.902,Ksepko,http://dx.doi.org/10.1080/01411590410001667635,151610,,221,48
,167,400,0.0000284295,-0.0000198831,,,0.0000198831,0.005562358334,0.00001390589583,LaNiO3,La1-xBix-NiO3,0,LaNiO3,35174.73047,"Evaporate nitrates (1173 K, air)",polycrystalline,Funahashi2003MP,http://dx.doi.org/10.1557/PROC-793-S3.3,impure. Even LaNiO3 is impure. LaNiO3+NiO,339.43,6,5,30,11.31433333,Falcon,http://dx.doi.org/10.1006/jssc.1997.7477,84933,,167,12
,168,700,0.0000460122,-0.0000257623,,,0.0000257623,0.01009704537,0.00001442435053,LaNiO3,La1-xBix-NiO3,0,LaNiO3,21733.36637,"Evaporate nitrates (1173 K, air)",polycrystalline,Funahashi2003MP,http://dx.doi.org/10.1557/PROC-793-S3.3,impure. Even LaNiO3 is impure. LaNiO3+NiO,339.43,6,5,30,11.31433333,Falcon,http://dx.doi.org/10.1006/jssc.1997.7477,84933,,167,12
,169,1000,0.0000621929,-0.0000270295,,,0.0000270295,0.01174722308,0.00001174722308,LaNiO3,La1-xBix-NiO3,0,LaNiO3,16079.0058,"Evaporate nitrates (1173 K, air)",polycrystalline,Funahashi2003MP,http://dx.doi.org/10.1557/PROC-793-S3.3,impure. Even LaNiO3 is impure. LaNiO3+NiO,339.43,6,5,30,11.31433333,Falcon,http://dx.doi.org/10.1006/jssc.1997.7477,84933,,167,12
,170,400,0.000026727,-0.0000209474,,,0.0000209474,0.006567045561,0.0000164176139,La0.9Bi0.1NiO3,La1-xBix-NiO3,0.1,LaNiO3,37415.34778,"Evaporate nitrates (1173 K, air)",polycrystalline,Funahashi2003MP,http://dx.doi.org/10.1557/PROC-793-S3.3,impure. Even LaNiO3 is impure. LaNiO3+NiO,339.43,6,5,30,11.31433333,Falcon,http://dx.doi.org/10.1006/jssc.1997.7477,84933,,167,12
,171,700,0.000041267,-0.0000284586,,,0.0000284586,0.01373795865,0.00001962565522,La0.9Bi0.1NiO3,La1-xBix-NiO3,0.1,LaNiO3,24232.43754,"Evaporate nitrates (1173 K, air)",polycrystalline,Funahashi2003MP,http://dx.doi.org/10.1557/PROC-793-S3.3,impure. Even LaNiO3 is impure. LaNiO3+NiO,339.43,6,5,30,11.31433333,Falcon,http://dx.doi.org/10.1006/jssc.1997.7477,84933,,167,12
,172,1000,0.0000608691,-0.0000307901,,,0.0000307901,0.01557490185,0.00001557490185,La0.9Bi0.1NiO3,La1-xBix-NiO3,0.1,LaNiO3,16428.69699,"Evaporate nitrates (1173 K, air)",polycrystalline,Funahashi2003MP,http://dx.doi.org/10.1557/PROC-793-S3.3,impure. Even LaNiO3 is impure. LaNiO3+NiO,339.43,6,5,30,11.31433333,Falcon,http://dx.doi.org/10.1006/jssc.1997.7477,84933,,167,12
,173,400,0.0000603672,-0.000139461,,,0.000139461,0.1288737627,0.0003221844068,Ca0.96Sm0.04MnO3,Ca1-xSmxMnO3,0.04,CaMnO3,16565.28711,Co-precipitation,polycrystalline,Sanmathi2007ICT,http://dx.doi.org/10.1109/ICT.2007.4569450,,210.39,4,5,20,10.5195,Yang,http://dx.doi.org/10.1021/jp809049s,164748,,62,8
,174,700,0.0000825459,-0.000169853,,,0.000169853,0.2446521163,0.0003495030233,Ca0.96Sm0.04MnO3,Ca1-xSmxMnO3,0.04,CaMnO3,12114.47207,Co-precipitation,polycrystalline,Sanmathi2007ICT,http://dx.doi.org/10.1109/ICT.2007.4569450,,210.39,4,5,20,10.5195,Yang,http://dx.doi.org/10.1021/jp809049s,164748,,62,8
,175,1000,0.000110453,-0.0001875,,,0.0001875,0.3182914905,0.0003182914905,Ca0.96Sm0.04MnO3,Ca1-xSmxMnO3,0.04,CaMnO3,9053.624619,Co-precipitation,polycrystalline,Sanmathi2007ICT,http://dx.doi.org/10.1109/ICT.2007.4569450,,210.39,4,5,20,10.5195,Yang,http://dx.doi.org/10.1021/jp809049s,164748,,62,8
,176,300,0.0000055,0.000162,1.468195804,0.975,0.000162,1.431490909,0.004771636364,Bi2Te3,Bi2Te3 (p-type),0,Bi/Sb/Pb-Te/Se,181818.1818,melted,single crystal,Scherrer1995,http://dx.doi.org/10.1201/9781420049718.ch19,"Rowe1995, Chapter 19.3",509.21,3,5,15,33.94733333,Feutelais,http://dx.doi.org/10.1016/0025-5408(93)90055-I,74348,0.9064929127,166,12
,177,300,0.0000045,-0.000174,4.016716418,0.5025,0.000174,2.0184,0.006728,Bi2Te3,Bi2Te3 (n-type),0,Bi/Sb/Pb-Te/Se,222222.2222,melted,single crystal,Scherrer1995,http://dx.doi.org/10.1201/9781420049718.ch19,"Rowe1995, Chapter 19.3",509.21,3,5,15,33.94733333,Feutelais,http://dx.doi.org/10.1016/0025-5408(93)90055-I,74348,0.404974237,166,12
,178,300,0.0000019,0.000038,3.377777778,0.0675,0.000038,0.228,0.00076,Sb2Te3,Sb2Te3 (Sb-side),0,Bi/Sb/Pb-Te/Se,526315.7895,melted,single crystal,Scherrer1995,http://dx.doi.org/10.1201/9781420049718.ch19,"Rowe1995, Chapter 19.3",479.59,3,5,15,31.97266667,Anderson,Http://dx.doi.org/10.1107/S0567740874004729 ,2084,1.140581717,166,12
,179,300,0.00000122,0.000063,5.205245902,0.1875,0.000063,0.9759836066,0.003253278689,Sb2Te3,Sb2Te3 (Te-side),0,Bi/Sb/Pb-Te/Se,819672.1311,melted,single crystal,Scherrer1995,http://dx.doi.org/10.1201/9781420049718.ch19,"Rowe1995, Chapter 19.3",479.59,3,5,15,31.97266667,Anderson,Http://dx.doi.org/10.1107/S0567740874004729 ,2084,1.152683296,166,12
,180,300,0.00000694238,0.0000786699,1.49875,0.1784435576,0.0000786699,0.267442282,0.0008914742734,Ag0.15Sb0.15Te1.15Ge0.85,(AgSbTe2)1-x(GeTe)x (TAGS),0.85,Bi/Sb/Pb-Te/Se,144042.821,melted,single crystal,Skrabek1995,http://dx.doi.org/10.1201/9781420049718.ch22,"E. A. Skrabek and D. S. Trimmer, Chapter 22.3",479.59,3,5,15,31.97266667,Anderson,Http://dx.doi.org/10.1107/S0567740874004729 ,2084,0.7035152294,166,12
,181,400,0.00000849855,0.000122163,1.53108,0.4587717345,0.000122163,0.7024162272,0.001756040568,Ag0.15Sb0.15Te1.15Ge0.85,(AgSbTe2)1-x(GeTe)x (TAGS),0.85,Bi/Sb/Pb-Te/Se,117667.1315,melted,single crystal,Skrabek1995,http://dx.doi.org/10.1201/9781420049718.ch22,"E. A. Skrabek and D. S. Trimmer, Chapter 22.3",479.59,3,5,15,31.97266667,Anderson,Http://dx.doi.org/10.1107/S0567740874004729 ,2084,0.7500791617,166,12
,182,700,0.0000121347,0.000199034,1.65073,1.384355066,0.000199034,2.285196437,0.003264566339,Ag0.15Sb0.15Te1.15Ge0.85,(AgSbTe2)1-x(GeTe)x (TAGS),0.85,Bi/Sb/Pb-Te/Se,82408.30016,melted,single crystal,Skrabek1995,http://dx.doi.org/10.1201/9781420049718.ch22,"E. A. Skrabek and D. S. Trimmer, Chapter 22.3",479.59,3,5,15,31.97266667,Anderson,Http://dx.doi.org/10.1107/S0567740874004729 ,2084,0.8526735243,166,12
,183,1000,0.0000127604,0.000165794,2.27167,0.948261434,0.000165794,2.154137052,0.002154137052,Ag0.15Sb0.15Te1.15Ge0.85,(AgSbTe2)1-x(GeTe)x (TAGS),0.85,Bi/Sb/Pb-Te/Se,78367.4493,melted,single crystal,Skrabek1995,http://dx.doi.org/10.1201/9781420049718.ch22,"Extrapolated from 870 K, E. A. Skrabek and D. S. Trimmer, Chapter 22.3",479.59,3,5,15,31.97266667,Anderson,Http://dx.doi.org/10.1107/S0567740874004729 ,2084,0.8417445152,166,12
,184,300,0.0000597571,-0.000279857,2.08661,0.1884355353,0.000279857,0.3931914724,0.001310638241,In0.05Co4Sb12,InxCo4Sb12,0.05,CoSb3,16734.41315,Solid state reaction,polycrystalline,He2006CM,http://dx.doi.org/10.1021/cm052055b,,739.6462088,2,16.05,32.1,23.04193797,He,http://dx.doi.org/10.1021/cm052055b,171715,0.05870570171,204,48
,185,400,0.0000677423,-0.000295566,1.73762,0.2968617171,0.000295566,0.5158328569,0.001289582142,In0.05Co4Sb12,InxCo4Sb12,0.05,CoSb3,14761.82533,Solid state reaction,polycrystalline,He2006CM,http://dx.doi.org/10.1021/cm052055b,,739.6462088,2,16.05,32.1,23.04193797,He,http://dx.doi.org/10.1021/cm052055b,171715,0.08291537575,204,48
,186,700,0.0000843493,-0.000334669,1.56386,0.5943601146,0.000334669,0.9294960088,0.001327851441,In0.05Co4Sb12,InxCo4Sb12,0.05,CoSb3,11855.46294,Solid state reaction,polycrystalline,He2006CM,http://dx.doi.org/10.1021/cm052055b,,739.6462088,2,16.05,32.1,23.04193797,He,http://dx.doi.org/10.1021/cm052055b,171715,0.1294817356,204,48
,187,300,0.0000292032,-0.000257303,2.18825,0.3108018352,0.000257303,0.6801121159,0.002267040386,In0.1Co4Sb12,InxCo4Sb12,0.1,CoSb3,34242.8227,Solid state reaction,polycrystalline,He2006CM,http://dx.doi.org/10.1021/cm052055b,,741.1439152,2,16.1,32.2,23.01689178,He,http://dx.doi.org/10.1021/cm052055b,171715,0.1145469952,204,48
,188,400,0.0000340249,-0.000276162,1.90897,0.4696689708,0.000276162,0.8965839752,0.002241459938,In0.1Co4Sb12,InxCo4Sb12,0.1,CoSb3,29390.24068,Solid state reaction,polycrystalline,He2006CM,http://dx.doi.org/10.1021/cm052055b,,741.1439152,2,16.1,32.2,23.01689178,He,http://dx.doi.org/10.1021/cm052055b,171715,0.1502636233,204,48
,189,700,0.0000433546,-0.000309846,1.74246,0.889593963,0.000309846,1.550081897,0.00221440271,In0.1Co4Sb12,InxCo4Sb12,0.1,CoSb3,23065.60319,Solid state reaction,polycrystalline,He2006CM,http://dx.doi.org/10.1021/cm052055b,Data at 600 K,741.1439152,2,16.1,32.2,23.01689178,He,http://dx.doi.org/10.1021/cm052055b,171715,0.2260944311,204,48
,190,300,0.0000187175,-0.000246592,2.29861,0.4240002251,0.000246592,0.9746111574,0.003248703858,In0.15Co4Sb12,InxCo4Sb12,0.15,CoSb3,53425.93829,Solid state reaction,polycrystalline,He2006CM,http://dx.doi.org/10.1021/cm052055b,,741.3896336,2,16.15,32.3,22.95323943,He,http://dx.doi.org/10.1021/cm052055b,171715,0.1701366775,204,48
,191,400,0.0000212784,-0.000266334,1.99464,0.6685127922,0.000266334,1.333442356,0.003333605889,In0.15Co4Sb12,InxCo4Sb12,0.15,CoSb3,46996.01474,Solid state reaction,polycrystalline,He2006CM,http://dx.doi.org/10.1021/cm052055b,,741.3896336,2,16.15,32.3,22.95323943,He,http://dx.doi.org/10.1021/cm052055b,171715,0.2299568362,204,48
,192,700,0.000026883,-0.000301531,1.86154,1.27177965,0.000301531,2.367468689,0.003382098127,In0.15Co4Sb12,InxCo4Sb12,0.15,CoSb3,37198.22936,Solid state reaction,polycrystalline,He2006CM,http://dx.doi.org/10.1021/cm052055b,Data at 600 K,741.3896336,2,16.15,32.3,22.95323943,He,http://dx.doi.org/10.1021/cm052055b,171715,0.3413011579,204,48
,193,300,0.0000149208,-0.000222148,2.47577,0.4007778073,0.000222148,0.9922336719,0.003307445573,In0.2Co4Sb12,InxCo4Sb12,0.2,CoSb3,67020.53509,Solid state reaction,polycrystalline,He2006CM,http://dx.doi.org/10.1021/cm052055b,,742.7420554,2,16.2,32.4,22.92413751,He,http://dx.doi.org/10.1021/cm052055b,171715,0.1981566611,204,48
,194,400,0.0000174818,-0.000248189,2.08031,0.6775024119,0.000248189,1.409415042,0.003523537606,In0.2Co4Sb12,InxCo4Sb12,0.2,CoSb3,57202.34758,Solid state reaction,polycrystalline,He2006CM,http://dx.doi.org/10.1021/cm052055b,,742.7420554,2,16.2,32.4,22.92413751,He,http://dx.doi.org/10.1021/cm052055b,171715,0.268371018,204,48
,195,700,0.0000214537,-0.000281747,1.9414,1.334133877,0.000281747,2.59008751,0.003700125014,In0.2Co4Sb12,InxCo4Sb12,0.2,CoSb3,46612.00632,Solid state reaction,polycrystalline,He2006CM,http://dx.doi.org/10.1021/cm052055b,Data at 600 K,742.7420554,2,16.2,32.4,22.92413751,He,http://dx.doi.org/10.1021/cm052055b,171715,0.4100819347,204,48
,196,300,0.0000113947,-0.000217108,2.55853,0.4850421707,0.000217108,1.240994945,0.004136649816,In0.25Co4Sb12,InxCo4Sb12,0.25,CoSb3,87760.09899,Solid state reaction,polycrystalline,He2006CM,http://dx.doi.org/10.1021/cm052055b,,742.8896917,2,16.25,32.5,22.85814436,He,http://dx.doi.org/10.1021/cm052055b,171715,0.2510832097,204,48
,197,400,0.0000134137,-0.000247937,2.26473,0.809426937,0.000247937,1.833133467,0.004582833668,In0.25Co4Sb12,InxCo4Sb12,0.25,CoSb3,74550.64598,Solid state reaction,polycrystalline,He2006CM,http://dx.doi.org/10.1021/cm052055b,,742.8896917,2,16.25,32.5,22.85814436,He,http://dx.doi.org/10.1021/cm052055b,171715,0.321280817,204,48
,198,700,0.0000165666,-0.0002757,2.13453,1.504651502,0.0002757,3.21172377,0.004588176814,In0.25Co4Sb12,InxCo4Sb12,0.25,CoSb3,60362.41595,Solid state reaction,polycrystalline,He2006CM,http://dx.doi.org/10.1021/cm052055b,Data at 600 K,742.8896917,2,16.25,32.5,22.85814436,He,http://dx.doi.org/10.1021/cm052055b,171715,0.4830056567,204,48
,199,300,0.0000151015,-0.000211816,2.68777,0.3316092149,0.000211816,0.8912892995,0.002970964332,In0.3Co4Sb12,InxCo4Sb12,0.3,CoSb3,66218.58756,Solid state reaction,polycrystalline,He2006CM,http://dx.doi.org/10.1021/cm052055b,,742.8896917,2,16.3,32.6,22.78802735,He,http://dx.doi.org/10.1021/cm052055b,171715,0.1803428347,204,48
,200,400,0.0000179338,-0.000247307,2.15872,0.6319230143,0.000247307,1.364144849,0.003410362123,In0.3Co4Sb12,InxCo4Sb12,0.3,CoSb3,55760.63076,Solid state reaction,polycrystalline,He2006CM,http://dx.doi.org/10.1021/cm052055b,,742.8896917,2,16.3,32.6,22.78802735,He,http://dx.doi.org/10.1021/cm052055b,171715,0.2521048382,204,48
,201,700,0.0000228108,-0.000278471,2.014,1.181566055,0.000278471,2.379674035,0.003399534336,In0.3Co4Sb12,InxCo4Sb12,0.3,CoSb3,43838.88334,Solid state reaction,polycrystalline,He2006CM,http://dx.doi.org/10.1021/cm052055b,Data at 600 K,742.8896917,2,16.3,32.6,22.78802735,He,http://dx.doi.org/10.1021/cm052055b,171715,0.3717815925,204,48
,202,300,0.0000113436,-0.000192212,2.57047,0.3801183247,0.000192212,0.97708275,0.0032569425,In0.2Co4Sb12,InxCo4Sb12,0.2,CoSb3,88155.43566,Solid state reaction,polycrystalline,Biswas2011JMR,http://dx.doi.org/10.1557/jmr.2011.163,,742.7420554,2,16.2,32.4,22.92413751,He,http://dx.doi.org/10.1021/cm052055b,171715,0.2510427233,204,48
,203,400,0.0000128767,-0.000214393,2.21377,0.6449768378,0.000214393,1.427830374,0.003569575936,In0.2Co4Sb12,InxCo4Sb12,0.2,CoSb3,77659.64882,Solid state reaction,polycrystalline,Biswas2011JMR,http://dx.doi.org/10.1557/jmr.2011.163,,742.7420554,2,16.2,32.4,22.92413751,He,http://dx.doi.org/10.1021/cm052055b,171715,0.342383433,204,48
,204,700,0.0000159808,-0.000247539,1.93658,1.385962072,0.000247539,2.68402643,0.003834323471,In0.2Co4Sb12,InxCo4Sb12,0.2,CoSb3,62575.09011,Solid state reaction,polycrystalline,Biswas2011JMR,http://dx.doi.org/10.1557/jmr.2011.163,Data at 620 K,742.7420554,2,16.2,32.4,22.92413751,He,http://dx.doi.org/10.1021/cm052055b,171715,0.5518917571,204,48
,205,300,0.00000368595,0.000062381,3.99643,0.07925091215,0.000062381,0.3167207228,0.001055735743,Na0.02PbTe,Na0.02PbTe(1-x)Se(x),0,Bi/Sb/Pb-Te/Se,271300.4788,melted,polycrystalline,Pei2011N,http://dx.doi.org/10.1038/nature09996,,269.84,4,2,8,33.73,Noda,http://dx.doi.org/10.1107/S0108270187091509,63099,0.4969233804,225,192
,206,400,0.00000569421,0.000105,2.675,0.2895218355,0.000105,0.7744709099,0.001936177275,Na0.02PbTe,Na0.02PbTe(1-x)Se(x),0,Bi/Sb/Pb-Te/Se,175616.9864,melted,polycrystalline,Pei2011N,http://dx.doi.org/10.1038/nature09996,,269.84,4,2,8,33.73,Noda,http://dx.doi.org/10.1107/S0108270187091509,63099,0.6407558082,225,192
,207,700,0.000017124,0.000212857,1.39286,1.329723145,0.000212857,1.85211818,0.002645883114,Na0.02PbTe,Na0.02PbTe(1-x)Se(x),0,Bi/Sb/Pb-Te/Se,58397.57066,melted,polycrystalline,Pei2011N,http://dx.doi.org/10.1038/nature09996,,269.84,4,2,8,33.73,Noda,http://dx.doi.org/10.1107/S0108270187091509,63099,0.7161024847,225,192
,208,300,0.00000413223,0.0000509524,3.01429,0.0625289342,0.0000509524,0.1884803411,0.0006282678035,Na0.02PbTe0.85Se0.15,Na0.02PbTe(1-x)Se(x),0.15,Bi/Sb/Pb-Te/Se,242000.0823,melted,polycrystalline,Pei2011N,http://dx.doi.org/10.1038/nature09996,,269.84,4,2,8,33.73,Noda,http://dx.doi.org/10.1107/S0108270187091509,63099,0.5876808808,225,192
,209,400,0.00000619008,0.0000983333,2.21786,0.28172853,0.0000983333,0.6248344376,0.001562086094,Na0.02PbTe0.85Se0.15,Na0.02PbTe(1-x)Se(x),0.15,Bi/Sb/Pb-Te/Se,161548.8007,melted,polycrystalline,Pei2011N,http://dx.doi.org/10.1038/nature09996,,269.84,4,2,8,33.73,Noda,http://dx.doi.org/10.1107/S0108270187091509,63099,0.7109178643,225,192
,210,700,0.0000160579,0.000209048,1.26786,1.502553777,0.000209048,1.905027831,0.00272146833,Na0.02PbTe0.85Se0.15,Na0.02PbTe(1-x)Se(x),0.15,Bi/Sb/Pb-Te/Se,62274.64363,melted,polycrystalline,Pei2011N,http://dx.doi.org/10.1038/nature09996,,269.84,4,2,8,33.73,Noda,http://dx.doi.org/10.1107/S0108270187091509,63099,0.838934041,225,192
,211,1000,0.0000205455,0.000204,1.18929,1.703161584,0.000204,2.025553041,0.002025553041,Na0.02PbTe0.85Se0.15,Na0.02PbTe(1-x)Se(x),0.15,Bi/Sb/Pb-Te/Se,48672.45869,melted,polycrystalline,Pei2011N,http://dx.doi.org/10.1038/nature09996,Extrapolated from 850 K,269.84,4,2,8,33.73,Noda,http://dx.doi.org/10.1107/S0108270187091509,63099,0.9985857041,225,192
,212,300,0.00000512397,0.0000588095,2.69643,0.07509663896,0.0000588095,0.2024928302,0.0006749761006,Na0.02PbTe0.75Se0.25,Na0.02PbTe(1-x)Se(x),0.25,Bi/Sb/Pb-Te/Se,195161.1739,melted,polycrystalline,Pei2011N,http://dx.doi.org/10.1038/nature09996,,269.84,4,2,8,33.73,Noda,http://dx.doi.org/10.1107/S0108270187091509,63099,0.5298041457,225,192
,213,400,0.00000690909,0.0000897619,2.15357,0.2166028777,0.0000897619,0.4664694593,0.001166173648,Na0.02PbTe0.75Se0.25,Na0.02PbTe(1-x)Se(x),0.25,Bi/Sb/Pb-Te/Se,144736.8611,melted,polycrystalline,Pei2011N,http://dx.doi.org/10.1038/nature09996,,269.84,4,2,8,33.73,Noda,http://dx.doi.org/10.1107/S0108270187091509,63099,0.65594885,225,192
,214,700,0.0000163306,0.000205238,1.29643,1.392715388,0.000205238,1.805558011,0.002579368587,Na0.02PbTe0.75Se0.25,Na0.02PbTe(1-x)Se(x),0.25,Bi/Sb/Pb-Te/Se,61234.73724,melted,polycrystalline,Pei2011N,http://dx.doi.org/10.1038/nature09996,,269.84,4,2,8,33.73,Noda,http://dx.doi.org/10.1107/S0108270187091509,63099,0.8067456878,225,192
,215,1000,0.0000198264,0.000197,1.19643,1.636067789,0.000197,1.957440584,0.001957440584,Na0.02PbTe0.75Se0.25,Na0.02PbTe(1-x)Se(x),0.25,Bi/Sb/Pb-Te/Se,50437.8001,melted,polycrystalline,Pei2011N,http://dx.doi.org/10.1038/nature09996,Extrapolated from 850 K,269.84,4,2,8,33.73,Noda,http://dx.doi.org/10.1107/S0108270187091509,63099,1.028628773,225,192
,216,300,0.0000274242,0.0001404,1.9421,0.1110324479,0.0001404,0.215636117,0.0007187870567,Tl0.01Pb0.99Te,TlxPb(1-x)Te,0.01,Bi/Sb/Pb-Te/Se,36464.14481,melted,polycrystalline,Heremans2008S,http://dx.doi.org/10.1126/science.1159725,,269.84,4,2,8,33.73,Noda,http://dx.doi.org/10.1107/S0108270187091509,63099,0.1374375882,225,192
,217,400,0.0000354545,0.000201457,1.55169,0.2950858534,0.000201457,0.4578817679,0.00114470442,Tl0.01Pb0.99Te,TlxPb(1-x)Te,0.01,Bi/Sb/Pb-Te/Se,28205.16437,melted,polycrystalline,Heremans2008S,http://dx.doi.org/10.1126/science.1159725,,269.84,4,2,8,33.73,Noda,http://dx.doi.org/10.1107/S0108270187091509,63099,0.177408119,225,192
,218,700,0.0000872727,0.000323936,0.965347,0.8718757668,0.000323936,0.8416626559,0.001202375223,Tl0.01Pb0.99Te,TlxPb(1-x)Te,0.01,Bi/Sb/Pb-Te/Se,11458.33691,melted,polycrystalline,Heremans2008S,http://dx.doi.org/10.1126/science.1159725,,269.84,4,2,8,33.73,Noda,http://dx.doi.org/10.1107/S0108270187091509,63099,0.2027337263,225,192
,219,300,0.0000239394,0.00013617,2.16832,0.1071636489,0.00013617,0.2323650831,0.0007745502769,Tl0.02Pb0.98Te,TlxPb(1-x)Te,0.02,Bi/Sb/Pb-Te/Se,41772.14132,melted,polycrystalline,Heremans2008S,http://dx.doi.org/10.1126/science.1159725,,269.84,4,2,8,33.73,Noda,http://dx.doi.org/10.1107/S0108270187091509,63099,0.1410179653,225,192
,220,400,0.0000290909,0.000195213,1.65594,0.3164285844,0.000195213,0.5239867501,0.001309966875,Tl0.02Pb0.98Te,TlxPb(1-x)Te,0.02,Bi/Sb/Pb-Te/Se,34375.01074,melted,polycrystalline,Heremans2008S,http://dx.doi.org/10.1126/science.1159725,,269.84,4,2,8,33.73,Noda,http://dx.doi.org/10.1107/S0108270187091509,63099,0.2026040224,225,192