# Outliers,Original Index,Temperature (K),Electrical Resistivity (Ohm m),Seebeck Coefficient (V/K),Thermal Conductivity (W/(m K)),Figure of Merit,Thermopower (V/K),Thermal Conductivity x Figure of Merit (W/m K),Power Factor (W/(K^2 m)),Formula,Series,Series Index,Family,Electrical Conductivity (S/m),Preparative Route,Final Form,Authors,DOI,Comments,Cell Volume (A^3),Formula Units per Cell,Atoms per Formula Unit,Total Atoms Per Unit Cell,Average Atomic Volume,Author of Unit Cell,Unit Cell DOI,ICSD ID,Electronic over Total Thermal Conductivity,Space Group,Number of Symmetry Elements
,348,300,0.000135192,-0.000156078,9.6695,0.005590486804,0.000156078,0.05405721215,0.0001801907072,In2O3,In2−xGexO3,0,In2O3,7396.88739,solid state reaction,polycrystalline,Berardan2008SSC,http://dx.doi.org/10.1016/j.ssc.2007.12.033,Thermal conductivity error is +/- 10%,1035.51,16,5,80,12.943875,Marezio,http://dx.doi.org/10.1107/S0365110X66001749,14388,0.005599587951,206,48
,349,400,0.000149487,-0.000172722,6.77329,0.01178561394,0.000172722,0.07982738107,0.0001995684527,In2O3,In2−xGexO3,0,In2O3,6689.54491,solid state reaction,polycrystalline,Berardan2008SSC,http://dx.doi.org/10.1016/j.ssc.2007.12.033,Thermal conductivity error is +/- 10%,1035.51,16,5,80,12.943875,Marezio,http://dx.doi.org/10.1107/S0365110X66001749,14388,0.00963932717,206,48
,350,700,0.000194842,-0.000202219,3.86562,0.03800495463,0.000202219,0.1469127127,0.0002098753039,In2O3,In2−xGexO3,0,In2O3,5132.363659,solid state reaction,polycrystalline,Berardan2008SSC,http://dx.doi.org/10.1016/j.ssc.2007.12.033,Thermal conductivity error is +/- 10%,1035.51,16,5,80,12.943875,Marezio,http://dx.doi.org/10.1107/S0365110X66001749,14388,0.02267702756,206,48
,351,1000,0.000229674,-0.000222736,2.97623,0.07257758417,0.000222736,0.2160075833,0.0002160075833,In2O3,In2−xGexO3,0,In2O3,4353.997405,solid state reaction,polycrystalline,Berardan2008SSC,http://dx.doi.org/10.1016/j.ssc.2007.12.033,Thermal conductivity error is +/- 10%,1035.51,16,5,80,12.943875,Marezio,http://dx.doi.org/10.1107/S0365110X66001749,14388,0.03569533829,206,48
,352,300,0.0000210578,-0.0000885671,9.1565,0.01220460161,0.0000885671,0.1117514347,0.0003725047822,In1.998Ge0.002O3,In2−xGexO3,0.002,In2O3,47488.34161,solid state reaction,polycrystalline,Berardan2008SSC,http://dx.doi.org/10.1016/j.ssc.2007.12.033,Thermal conductivity error is +/- 10%,1035.51,16,5,80,12.943875,Marezio,http://dx.doi.org/10.1107/S0365110X66001749,14388,0.03796370454,206,48
,353,400,0.000023498,-0.000105832,6.85319,0.02782084562,0.000105832,0.190661541,0.0004766538524,In1.998Ge0.002O3,In2−xGexO3,0.002,In2O3,42556.81335,solid state reaction,polycrystalline,Berardan2008SSC,http://dx.doi.org/10.1016/j.ssc.2007.12.033,Thermal conductivity error is +/- 10%,1035.51,16,5,80,12.943875,Marezio,http://dx.doi.org/10.1107/S0365110X66001749,14388,0.06060746868,206,48
,354,700,0.0000337115,-0.000146168,3.92271,0.1130936888,0.000146168,0.4436337439,0.0006337624913,In1.998Ge0.002O3,In2−xGexO3,0.002,In2O3,29663.46796,solid state reaction,polycrystalline,Berardan2008SSC,http://dx.doi.org/10.1016/j.ssc.2007.12.033,Thermal conductivity error is +/- 10%,1035.51,16,5,80,12.943875,Marezio,http://dx.doi.org/10.1107/S0365110X66001749,14388,0.1291586767,206,48
,355,1000,0.000044955,-0.000177832,2.93072,0.2400310891,0.000177832,0.7034639133,0.0007034639133,In1.998Ge0.002O3,In2−xGexO3,0.002,In2O3,22244.46669,solid state reaction,polycrystalline,Berardan2008SSC,http://dx.doi.org/10.1016/j.ssc.2007.12.033,Thermal conductivity error is +/- 10%,1035.51,16,5,80,12.943875,Marezio,http://dx.doi.org/10.1107/S0365110X66001749,14388,0.1851985134,206,48
,356,300,0.00000836795,-0.0000504768,9.71545,0.009402057151,0.0000504768,0.09134521615,0.0003044840538,In1.994Ge0.006O3,In2−xGexO3,0.006,In2O3,119503.5821,solid state reaction,polycrystalline,Berardan2008SSC,http://dx.doi.org/10.1016/j.ssc.2007.12.033,Thermal conductivity error is +/- 10%,1035.51,16,5,80,12.943875,Marezio,http://dx.doi.org/10.1107/S0365110X66001749,14388,0.09003867254,206,48
,357,400,0.00000942337,-0.0000624767,7.20692,0.02299006562,0.0000624767,0.1656875637,0.0004142189093,In1.994Ge0.006O3,In2−xGexO3,0.006,In2O3,106119.1485,solid state reaction,polycrystalline,Berardan2008SSC,http://dx.doi.org/10.1016/j.ssc.2007.12.033,Thermal conductivity error is +/- 10%,1035.51,16,5,80,12.943875,Marezio,http://dx.doi.org/10.1107/S0365110X66001749,14388,0.1437122778,206,48
,358,700,0.0000129155,-0.0000941419,4.58432,0.1047798589,0.0000941419,0.4803444028,0.0006862062898,In1.994Ge0.006O3,In2−xGexO3,0.006,In2O3,77426.34819,solid state reaction,polycrystalline,Berardan2008SSC,http://dx.doi.org/10.1016/j.ssc.2007.12.033,Thermal conductivity error is +/- 10%,1035.51,16,5,80,12.943875,Marezio,http://dx.doi.org/10.1107/S0365110X66001749,14388,0.288470706,206,48
,359,1000,0.0000168341,-0.000119305,3.48967,0.2422942052,0.000119305,0.8455268191,0.0008455268191,In1.994Ge0.006O3,In2−xGexO3,0.006,In2O3,59403.2351,solid state reaction,polycrystalline,Berardan2008SSC,http://dx.doi.org/10.1016/j.ssc.2007.12.033,Thermal conductivity error is +/- 10%,1035.51,16,5,80,12.943875,Marezio,http://dx.doi.org/10.1107/S0365110X66001749,14388,0.4153512901,206,48
,360,300,0.00000722981,-0.0000467607,9.41949,0.009632277567,0.0000467607,0.09073114222,0.0003024371407,In1.985Ge0.015O3,In2−xGexO3,0.015,In2O3,138316.2213,solid state reaction,polycrystalline,Berardan2008SSC,http://dx.doi.org/10.1016/j.ssc.2007.12.033,Thermal conductivity error is +/- 10%,1035.51,16,5,80,12.943875,Marezio,http://dx.doi.org/10.1107/S0365110X66001749,14388,0.1074872143,206,48
,361,400,0.00000817897,-0.0000565928,7.04775,0.02222456398,0.0000565928,0.1566331708,0.0003915829269,In1.985Ge0.015O3,In2−xGexO3,0.015,In2O3,122264.784,solid state reaction,polycrystalline,Berardan2008SSC,http://dx.doi.org/10.1016/j.ssc.2007.12.033,Thermal conductivity error is +/- 10%,1035.51,16,5,80,12.943875,Marezio,http://dx.doi.org/10.1107/S0365110X66001749,14388,0.1693170574,206,48
,362,700,0.0000113128,-0.0000833032,4.61902,0.09296114352,0.0000833032,0.4293893812,0.0006134134017,In1.985Ge0.015O3,In2−xGexO3,0.015,In2O3,88395.44587,solid state reaction,polycrystalline,Berardan2008SSC,http://dx.doi.org/10.1016/j.ssc.2007.12.033,Thermal conductivity error is +/- 10%,1035.51,16,5,80,12.943875,Marezio,http://dx.doi.org/10.1107/S0365110X66001749,14388,0.3268646196,206,48
,363,1000,0.0000143465,-0.000108464,3.53581,0.2319190112,0.000108464,0.820021559,0.000820021559,In1.985Ge0.015O3,In2−xGexO3,0.015,In2O3,69703.41198,solid state reaction,polycrystalline,Berardan2008SSC,http://dx.doi.org/10.1016/j.ssc.2007.12.033,Thermal conductivity error is +/- 10%,1035.51,16,5,80,12.943875,Marezio,http://dx.doi.org/10.1107/S0365110X66001749,14388,0.4810109289,206,48
,364,300,0.00000896151,-0.0000507871,8.86791,0.00973700995,0.0000507871,0.08634692791,0.000287823093,In1.94Ge0.06O3,In2−xGexO3,0.06,In2O3,111588.3372,solid state reaction,polycrystalline,Berardan2008SSC,http://dx.doi.org/10.1016/j.ssc.2007.12.033,,1035.51,16,5,80,12.943875,Marezio,http://dx.doi.org/10.1107/S0365110X66001749,14388,0.09211038774,206,48
,365,400,0.00000995442,-0.0000606186,6.6037,0.0223598301,0.0000606186,0.14765761,0.0003691440251,In1.94Ge0.06O3,In2−xGexO3,0.06,In2O3,100457.887,solid state reaction,polycrystalline,Berardan2008SSC,http://dx.doi.org/10.1016/j.ssc.2007.12.033,,1035.51,16,5,80,12.943875,Marezio,http://dx.doi.org/10.1107/S0365110X66001749,14388,0.148472671,206,48
,366,700,0.0000139586,-0.0000885677,3.89999,0.1008656793,0.0000885677,0.3933751407,0.0005619644866,In1.94Ge0.06O3,In2−xGexO3,0.06,In2O3,71640.42239,solid state reaction,polycrystalline,Berardan2008SSC,http://dx.doi.org/10.1016/j.ssc.2007.12.033,,1035.51,16,5,80,12.943875,Marezio,http://dx.doi.org/10.1107/S0365110X66001749,14388,0.3137491159,206,48
,367,1000,0.0000177828,-0.000114967,3.06296,0.2426637632,0.000114967,0.7432694002,0.0007432694002,In1.94Ge0.06O3,In2−xGexO3,0.06,In2O3,56234.11386,solid state reaction,polycrystalline,Berardan2008SSC,http://dx.doi.org/10.1016/j.ssc.2007.12.033,,1035.51,16,5,80,12.943875,Marezio,http://dx.doi.org/10.1107/S0365110X66001749,14388,0.4479694081,206,48
,368,300,0.0000132139,-0.0000532639,6.84738,0.009406579575,0.0000532639,0.06441042485,0.0002147014162,In1.9Ge0.1O3,In2−xGexO3,0.1,In2O3,75677.88465,solid state reaction,polycrystalline,Berardan2008SSC,http://dx.doi.org/10.1016/j.ssc.2007.12.033,,1035.51,16,5,80,12.943875,Marezio,http://dx.doi.org/10.1107/S0365110X66001749,14388,0.08090132513,206,48
,369,400,0.0000143465,-0.0000655729,5.09141,0.02354641204,0.0000655729,0.1198844377,0.0002997110943,In1.9Ge0.1O3,In2−xGexO3,0.1,In2O3,69703.41198,solid state reaction,polycrystalline,Berardan2008SSC,http://dx.doi.org/10.1016/j.ssc.2007.12.033,Thermal conductivity error is +/- 10%,1035.51,16,5,80,12.943875,Marezio,http://dx.doi.org/10.1107/S0365110X66001749,14388,0.1336182513,206,48
,370,700,0.000017302,-0.0000932129,3.24419,0.1083546343,0.0000932129,0.351523021,0.0005021757442,In1.9Ge0.1O3,In2−xGexO3,0.1,In2O3,57796.7865,solid state reaction,polycrystalline,Berardan2008SSC,http://dx.doi.org/10.1016/j.ssc.2007.12.033,Thermal conductivity error is +/- 10%,1035.51,16,5,80,12.943875,Marezio,http://dx.doi.org/10.1107/S0365110X66001749,14388,0.3042883165,206,48
,371,1000,0.0000208663,-0.000117444,2.51443,0.2628915772,0.000117444,0.6610224686,0.0006610224686,In1.9Ge0.1O3,In2−xGexO3,0.1,In2O3,47924.1648,solid state reaction,polycrystalline,Berardan2008SSC,http://dx.doi.org/10.1016/j.ssc.2007.12.033,Thermal conductivity error is +/- 10%,1035.51,16,5,80,12.943875,Marezio,http://dx.doi.org/10.1107/S0365110X66001749,14388,0.4650555478,206,48
,372,300,0.0000287298,-0.0000523343,3.23848,0.008831211217,0.0000523343,0.0285997009,0.00009533233634,In1.8Ge0.2O3,In2−xGexO3,0.2,In2O3,34807.06444,solid state reaction,polycrystalline,Berardan2008SSC,http://dx.doi.org/10.1016/j.ssc.2007.12.033,Thermal conductivity error is +/- 10%,1035.51,16,5,80,12.943875,Marezio,http://dx.doi.org/10.1107/S0365110X66001749,14388,0.07867509193,206,48
,373,400,0.000027953,-0.0000640245,2.61135,0.02246254052,0.0000640245,0.05865755519,0.000146643888,In1.8Ge0.2O3,In2−xGexO3,0.2,In2O3,35774.33549,solid state reaction,polycrystalline,Berardan2008SSC,http://dx.doi.org/10.1016/j.ssc.2007.12.033,Thermal conductivity error is +/- 10%,1035.51,16,5,80,12.943875,Marezio,http://dx.doi.org/10.1107/S0365110X66001749,14388,0.1337076663,206,48
,374,700,0.0000243728,-0.0000864,1.83597,0.1167762486,0.0000864,0.2143976892,0.0003062824132,In1.8Ge0.2O3,In2−xGexO3,0.2,In2O3,41029.34419,solid state reaction,polycrystalline,Berardan2008SSC,http://dx.doi.org/10.1016/j.ssc.2007.12.033,Thermal conductivity error is +/- 10%,1035.51,16,5,80,12.943875,Marezio,http://dx.doi.org/10.1107/S0365110X66001749,14388,0.3816953429,206,48
,375,1000,0.0000267047,-0.000110012,1.63073,0.2779139558,0.000110012,0.4532026252,0.0004532026252,In1.8Ge0.2O3,In2−xGexO3,0.2,In2O3,37446.5918,solid state reaction,polycrystalline,Berardan2008SSC,http://dx.doi.org/10.1016/j.ssc.2007.12.033,Thermal conductivity error is +/- 10%,1035.51,16,5,80,12.943875,Marezio,http://dx.doi.org/10.1107/S0365110X66001749,14388,0.5602992769,206,48
,526,300,0.00007013212893,-0.000167,,,0.000167,0.119299102,0.0003976636732,Sr0.95La0.05TiO3,Sr1-xLaxTiO3,0.05,SrTiO3,,"solid state reaction, Ar",polycrystalline,Muta2003JAC,http://dx.doi.org/10.1016/S0925-8388(02)00972-6,,59.83,1,5,5,11.966,Howard, http://dx.doi.org/10.1063/1.342963,65091,,221,48
,527,400,0.00004427364655,-0.000188,,,0.000188,0.3193231437,0.0007983078592,Sr0.95La0.05TiO3,Sr1-xLaxTiO3,0.05,SrTiO3,,"solid state reaction, Ar",polycrystalline,Muta2003JAC,http://dx.doi.org/10.1016/S0925-8388(02)00972-6,,59.83,1,5,5,11.966,Howard, http://dx.doi.org/10.1063/1.342963,65091,,221,48
,528,700,0.00009176669236,-0.000251,,,0.000251,0.480574148,0.0006865344972,Sr0.95La0.05TiO3,Sr1-xLaxTiO3,0.05,SrTiO3,,"solid state reaction, Ar",polycrystalline,Muta2003JAC,http://dx.doi.org/10.1016/S0925-8388(02)00972-6,,59.83,1,5,5,11.966,Howard, http://dx.doi.org/10.1063/1.342963,65091,,221,48
,529,1000,0.0001832585944,-0.000285,,,0.000285,0.4432261433,0.0004432261433,Sr0.95La0.05TiO3,Sr1-xLaxTiO3,0.05,SrTiO3,,"solid state reaction, Ar",polycrystalline,Muta2003JAC,http://dx.doi.org/10.1016/S0925-8388(02)00972-6,,59.83,1,5,5,11.966,Howard, http://dx.doi.org/10.1063/1.342963,65091,,221,48
,530,300,0.00002614215056,-0.0000976,5.88,0.01859097866,0.0000976,0.1093149545,0.0003643831818,Sr0.9La0.1TiO3,Sr1-xLaxTiO3,0.1,SrTiO3,,"solid state reaction, Ar",polycrystalline,Muta2003JAC,http://dx.doi.org/10.1016/S0925-8388(02)00972-6,,59.83,1,5,5,11.966,Howard, http://dx.doi.org/10.1063/1.342963,65091,0.04762033469,221,48
,531,400,0.00001650322968,-0.000115,5.28,0.06070896174,0.000115,0.320543318,0.000801358295,Sr0.9La0.1TiO3,Sr1-xLaxTiO3,0.1,SrTiO3,,"solid state reaction, Ar",polycrystalline,Muta2003JAC,http://dx.doi.org/10.1016/S0925-8388(02)00972-6,,59.83,1,5,5,11.966,Howard, http://dx.doi.org/10.1063/1.342963,65091,0.1120074606,221,48
,532,700,0.00003658929251,-0.000179,3.83,0.1600483923,0.000179,0.6129853425,0.0008756933464,Sr0.9La0.1TiO3,Sr1-xLaxTiO3,0.1,SrTiO3,,"solid state reaction, Ar",polycrystalline,Muta2003JAC,http://dx.doi.org/10.1016/S0925-8388(02)00972-6,,59.83,1,5,5,11.966,Howard, http://dx.doi.org/10.1063/1.342963,65091,0.1218807394,221,48
,533,1000,0.00007932541666,-0.000221,3.15,0.195461682,0.000221,0.6157042983,0.0006157042983,Sr0.9La0.1TiO3,Sr1-xLaxTiO3,0.1,SrTiO3,,"solid state reaction, Ar",polycrystalline,Muta2003JAC,http://dx.doi.org/10.1016/S0925-8388(02)00972-6,,59.83,1,5,5,11.966,Howard, http://dx.doi.org/10.1063/1.342963,65091,0.0976488,221,48
,534,300,0.000006129704548,-0.0000537,,,0.0000537,0.141133556,0.0004704451866,Sr0.8La0.2TiO3,Sr1-xLaxTiO3,0.2,SrTiO3,,"solid state reaction, Ar",polycrystalline,Muta2003JAC,http://dx.doi.org/10.1016/S0925-8388(02)00972-6,,60,1,5,5,12,Howard, http://dx.doi.org/10.1063/1.342963,65094,,221,48
,535,400,0.000005336777334,-0.0000647,,,0.0000647,0.3137541432,0.0007843853581,Sr0.8La0.2TiO3,Sr1-xLaxTiO3,0.2,SrTiO3,,"solid state reaction, Ar",polycrystalline,Muta2003JAC,http://dx.doi.org/10.1016/S0925-8388(02)00972-6,,60,1,5,5,12,Howard, http://dx.doi.org/10.1063/1.342963,65094,,221,48
,536,700,0.00001192059927,-0.000113,,,0.000113,0.7498196857,0.00107117098,Sr0.8La0.2TiO3,Sr1-xLaxTiO3,0.2,SrTiO3,,"solid state reaction, Ar",polycrystalline,Muta2003JAC,http://dx.doi.org/10.1016/S0925-8388(02)00972-6,,60,1,5,5,12,Howard, http://dx.doi.org/10.1063/1.342963,65094,,221,48
,537,1000,0.00002380617961,-0.000158,,,0.000158,1.048635288,0.001048635288,Sr0.8La0.2TiO3,Sr1-xLaxTiO3,0.2,SrTiO3,,"solid state reaction, Ar",polycrystalline,Muta2003JAC,http://dx.doi.org/10.1016/S0925-8388(02)00972-6,,60,1,5,5,12,Howard, http://dx.doi.org/10.1063/1.342963,65094,,221,48
,774,300,0.0000230891,0.000122133,0.77,0.2517036856,0.000122133,0.1938118379,0.0006460394597,Zn4Sb3,β-Zn4Sb3,0.09,Zn4Sb3,,"solid state reaction, Ar",polycrystalline,Toberer2010JMC,http://dx.doi.org/10.1039/c0jm02011g,,1610.64,9,7,63,25.56571429,Mayer,http://dx.doi.org/10.1016/0022-5088(78)90109-1,52403,0.4117307953,167,12
,775,400,0.0000266982,0.000148361,0.74,0.4456416704,0.000148361,0.3297748361,0.0008244370902,Zn4Sb3,β-Zn4Sb3,0.09,Zn4Sb3,,"solid state reaction, Ar",polycrystalline,Toberer2010JMC,http://dx.doi.org/10.1039/c0jm02011g,,1610.64,9,7,63,25.56571429,Mayer,http://dx.doi.org/10.1016/0022-5088(78)90109-1,52403,0.4940104273,167,12
,776,700,0.0000335417,0.000184769,0.74,0.9628075046,0.000184769,0.7124775534,0.001017825076,Zn4Sb3,β-Zn4Sb3,0.09,Zn4Sb3,,"solid state reaction, Ar",polycrystalline,Toberer2010JMC,http://dx.doi.org/10.1039/c0jm02011g,,1610.64,9,7,63,25.56571429,Mayer,http://dx.doi.org/10.1016/0022-5088(78)90109-1,52403,0.688130926,167,12
,777,300,0.0000212594,0.000126887,0.76,0.2989447411,0.000126887,0.2271980033,0.0007573266776,Zn4Sb3,β-Zn4Sb3,0.08,Zn4Sb3,,"solid state reaction, Ar",polycrystalline,Toberer2010JMC,http://dx.doi.org/10.1039/c0jm02011g,,1610.64,9,7,63,25.56571429,Mayer,http://dx.doi.org/10.1016/0022-5088(78)90109-1,52403,0.4530503658,167,12
,778,400,0.000024668,0.000155085,0.743,0.5249003068,0.000155085,0.3900009279,0.0009750023198,Zn4Sb3,β-Zn4Sb3,0.08,Zn4Sb3,,"solid state reaction, Ar",polycrystalline,Toberer2010JMC,http://dx.doi.org/10.1039/c0jm02011g,,1610.64,9,7,63,25.56571429,Mayer,http://dx.doi.org/10.1016/0022-5088(78)90109-1,52403,0.5325091372,167,12
,779,700,0.0000316607,0.000188372,0.743,1.055896648,0.000188372,0.7845312096,0.001120758871,Zn4Sb3,β-Zn4Sb3,0.08,Zn4Sb3,,"solid state reaction, Ar",polycrystalline,Toberer2010JMC,http://dx.doi.org/10.1039/c0jm02011g,,1610.64,9,7,63,25.56571429,Mayer,http://dx.doi.org/10.1016/0022-5088(78)90109-1,52403,0.7260700788,167,12
,780,300,0.0000217354,0.000135898,0.783,0.3255502148,0.000135898,0.2549058182,0.0008496860607,Zn4Sb3,β-Zn4Sb3,0.075,Zn4Sb3,,"solid state reaction, Ar",polycrystalline,Toberer2010JMC,http://dx.doi.org/10.1039/c0jm02011g,,1610.64,9,7,63,25.56571429,Mayer,http://dx.doi.org/10.1016/0022-5088(78)90109-1,52403,0.4301121214,167,12
,781,400,0.000025094,0.000160988,0.75,0.5508277919,0.000160988,0.4131208439,0.00103280211,Zn4Sb3,β-Zn4Sb3,0.075,Zn4Sb3,,"solid state reaction, Ar",polycrystalline,Toberer2010JMC,http://dx.doi.org/10.1039/c0jm02011g,,1610.64,9,7,63,25.56571429,Mayer,http://dx.doi.org/10.1016/0022-5088(78)90109-1,52403,0.5185834595,167,12
,782,700,0.0000328897,0.000191811,0.75,1.044056216,0.000191811,0.7830421623,0.00111863166,Zn4Sb3,β-Zn4Sb3,0.075,Zn4Sb3,,"solid state reaction, Ar",polycrystalline,Toberer2010JMC,http://dx.doi.org/10.1039/c0jm02011g,,1610.64,9,7,63,25.56571429,Mayer,http://dx.doi.org/10.1016/0022-5088(78)90109-1,52403,0.692415356,167,12
,1007,300,0.008878471482,-0.000413391,,,0.000413391,0.00577437634,0.00001924792113,Fe1.98Ti0.02O3,(Fe1-xMx)2O3,0.01,Fe2TiO3,,"solid state reaction, air",polycrystalline,Muta2002JAC,http://dx.doi.org/10.1016/S0925-8388(01)01804-7,,101.11,2,5,10,10.111,Harrison,http://dx.doi.org/10.2138/​am.2010.3402,168009,,2,2
,1008,400,0.004919056918,-0.000402826,,,0.000402826,0.01319511353,0.00003298778383,Fe1.98Ti0.02O3,(Fe1-xMx)2O3,0.01,Fe2TiO3,,"solid state reaction, air",polycrystalline,Muta2002JAC,http://dx.doi.org/10.1016/S0925-8388(01)01804-7,,101.11,2,5,10,10.111,Harrison,http://dx.doi.org/10.2138/​am.2010.3402,168009,,2,2
,1009,700,0.001797268152,-0.000370393,,,0.000370393,0.05343314073,0.00007633305818,Fe1.98Ti0.02O3,(Fe1-xMx)2O3,0.01,Fe2TiO3,,"solid state reaction, air",polycrystalline,Muta2002JAC,http://dx.doi.org/10.1016/S0925-8388(01)01804-7,,101.11,2,5,10,10.111,Harrison,http://dx.doi.org/10.2138/​am.2010.3402,168009,,2,2
,1010,1000,0.001381087662,-0.000371867,,,0.000371867,0.1001276527,0.0001001276527,Fe1.98Ti0.02O3,(Fe1-xMx)2O3,0.01,Fe2TiO3,,"solid state reaction, air",polycrystalline,Muta2002JAC,http://dx.doi.org/10.1016/S0925-8388(01)01804-7,,101.11,2,5,10,10.111,Harrison,http://dx.doi.org/10.2138/​am.2010.3402,168009,,2,2
,1011,300,0.00376396903,-0.000366462,7.82,0.001368757006,0.000366462,0.01070367979,0.00003567893263,Fe1.96Ti0.04O3,(Fe1-xMx)2O3,0.02,Fe2TiO3,,"solid state reaction, air",polycrystalline,Muta2002JAC,http://dx.doi.org/10.1016/S0925-8388(01)01804-7,,101.11,2,5,10,10.111,Harrison,http://dx.doi.org/10.2138/​am.2010.3402,168009,2.486899795,2,2
,1012,400,0.002139234197,-0.000343857,6.87,0.003218108345,0.000343857,0.02210840433,0.00005527101082,Fe1.96Ti0.04O3,(Fe1-xMx)2O3,0.02,Fe2TiO3,,"solid state reaction, air",polycrystalline,Muta2002JAC,http://dx.doi.org/10.1016/S0925-8388(01)01804-7,,101.11,2,5,10,10.111,Harrison,http://dx.doi.org/10.2138/​am.2010.3402,168009,6.641019389,2,2