# Outliers,Original Index,Temperature (K),Electrical Resistivity (Ohm m),Seebeck Coefficient (V/K),Thermal Conductivity (W/(m K)),Figure of Merit,Thermopower (V/K),Thermal Conductivity x Figure of Merit (W/m K),Power Factor (W/(K^2 m)),Formula,Series,Series Index,Family,Electrical Conductivity (S/m),Preparative Route,Final Form,Authors,DOI,Comments,Cell Volume (A^3),Formula Units per Cell,Atoms per Formula Unit,Total Atoms Per Unit Cell,Average Atomic Volume,Author of Unit Cell,Unit Cell DOI,ICSD ID,Electronic over Total Thermal Conductivity,Space Group,Number of Symmetry Elements
,335,1000,0.000186642,-0.000244888,1.61396,0.1990823974,0.000244888,0.3213110262,0.0003213110262,CaYb0.05Mn0.95O3,CaYbxMn1-xO3,0.05,CaMnO3,5357.850859,Solid state reaction,polycrystalline,Flahaut2006ICT,http://dx.doi.org/10.1109/ICT.2006.331291,Resistivity extrapolated from 960 K,206.97,4,5,20,10.3485,Poeppelmeier,http://dx.doi.org/10.1016/0022-4596(82)90292-4,35218,0.08100049627,62,8
,336,300,0.0000389918,-0.0000528011,1.72527,0.01243302596,0.0000528011,0.02145032669,0.00007150108898,CaYb0.1Mn0.9O3,CaYbxMn1-xO3,0.1,CaMnO3,25646.41796,Solid state reaction,polycrystalline,Flahaut2006ICT,http://dx.doi.org/10.1109/ICT.2006.331291,,207.52,4,5,20,10.376,Wang,http://dx.doi.org/10.1021/jp809049s,164755,0.1088129855,62,8
,337,400,0.000043831,-0.000060084,1.63869,0.02010478734,0.000060084,0.03294551396,0.0000823637849,CaYb0.1Mn0.9O3,CaYbxMn1-xO3,0.1,CaMnO3,22814.90269,Solid state reaction,polycrystalline,Flahaut2006ICT,http://dx.doi.org/10.1109/ICT.2006.331291,,207.52,4,5,20,10.376,Wang,http://dx.doi.org/10.1021/jp809049s,164755,0.1358850364,62,8
,338,700,0.0000614631,-0.0000846639,1.61396,0.05058099315,0.0000846639,0.0816356997,0.0001166224281,CaYb0.1Mn0.9O3,CaYbxMn1-xO3,0.1,CaMnO3,16269.92456,Solid state reaction,polycrystalline,Flahaut2006ICT,http://dx.doi.org/10.1109/ICT.2006.331291,,207.52,4,5,20,10.376,Wang,http://dx.doi.org/10.1021/jp809049s,164755,0.1721791813,62,8
,339,1000,0.0000782461,-0.000128361,1.58304,0.1330183617,0.000128361,0.2105733873,0.0002105733873,CaYb0.1Mn0.9O3,CaYbxMn1-xO3,0.1,CaMnO3,12780.18968,Solid state reaction,polycrystalline,Flahaut2006ICT,http://dx.doi.org/10.1109/ICT.2006.331291,Thermal conductivity extrapolated from 970 K,207.52,4,5,20,10.376,Wang,http://dx.doi.org/10.1021/jp809049s,164755,0.1969859437,62,8
,340,300,0.0000336145,-0.0000382353,1.64488,0.007932121961,0.0000382353,0.01304738877,0.0000434912959,CaYb0.15Mn0.85O3,CaYbxMn1-xO3,0.15,CaMnO3,29749.06662,Solid state reaction,polycrystalline,Flahaut2006ICT,http://dx.doi.org/10.1109/ICT.2006.331291,,207.52,4,5,20,10.376,Wang,http://dx.doi.org/10.1021/jp809049s,164755,0.1323884829,62,8
,341,400,0.0000359065,-0.0000491597,1.57067,0.01714037883,0.0000491597,0.02692187881,0.00006730469704,CaYb0.15Mn0.85O3,CaYbxMn1-xO3,0.15,CaMnO3,27850.1107,Solid state reaction,polycrystalline,Flahaut2006ICT,http://dx.doi.org/10.1109/ICT.2006.331291,,207.52,4,5,20,10.376,Wang,http://dx.doi.org/10.1021/jp809049s,164755,0.1730580456,62,8
,342,700,0.0000481615,-0.0000609944,1.66961,0.03238641862,0.0000609944,0.05407268839,0.0000772466977,CaYb0.15Mn0.85O3,CaYbxMn1-xO3,0.15,CaMnO3,20763.4729,Solid state reaction,polycrystalline,Flahaut2006ICT,http://dx.doi.org/10.1109/ICT.2006.331291,,207.52,4,5,20,10.376,Wang,http://dx.doi.org/10.1021/jp809049s,164755,0.212408956,62,8
,343,1000,0.0000595672,-0.00010105,1.69435,0.1011724629,0.00010105,0.1714215625,0.0001714215625,CaYb0.15Mn0.85O3,CaYbxMn1-xO3,0.15,CaMnO3,16787.76239,Solid state reaction,polycrystalline,Flahaut2006ICT,http://dx.doi.org/10.1109/ICT.2006.331291,Thermal conductivity extrapolated from 970 K,207.52,4,5,20,10.376,Wang,http://dx.doi.org/10.1021/jp809049s,164755,0.2417572534,62,8
,344,300,0.000152199,-0.00000910364,,,0.00000910364,0.0001633576986,0.0000005445256621,CaYb0.4Mn0.6O3,CaYbxMn1-xO3,0.4,CaMnO3,6570.345403,Solid state reaction,polycrystalline,Flahaut2006ICT,http://dx.doi.org/10.1109/ICT.2006.331291,,207.52,4,5,20,10.376,Wang,http://dx.doi.org/10.1021/jp809049s,164755,,62,8
,345,400,0.000120812,-0.000020028,,,0.000020028,0.001328082588,0.00000332020647,CaYb0.4Mn0.6O3,CaYbxMn1-xO3,0.4,CaMnO3,8277.323445,Solid state reaction,polycrystalline,Flahaut2006ICT,http://dx.doi.org/10.1109/ICT.2006.331291,,207.52,4,5,20,10.376,Wang,http://dx.doi.org/10.1021/jp809049s,164755,,62,8
,346,700,0.000106181,-0.0000509804,,,0.0000509804,0.01713395833,0.00002447708332,CaYb0.4Mn0.6O3,CaYbxMn1-xO3,0.4,CaMnO3,9417.880788,Solid state reaction,polycrystalline,Flahaut2006ICT,http://dx.doi.org/10.1109/ICT.2006.331291,,207.52,4,5,20,10.376,Wang,http://dx.doi.org/10.1021/jp809049s,164755,,62,8
,347,1000,0.000110794,-0.0000254902,,,0.0000254902,0.005864489919,0.000005864489919,CaYb0.4Mn0.6O3,CaYbxMn1-xO3,0.4,CaMnO3,9025.759518,Solid state reaction,polycrystalline,Flahaut2006ICT,http://dx.doi.org/10.1109/ICT.2006.331291,Thermal conductivity extrapolated from 970 K,207.52,4,5,20,10.376,Wang,http://dx.doi.org/10.1021/jp809049s,164755,,62,8
,348,300,0.000135192,-0.000156078,9.6695,0.005590486804,0.000156078,0.05405721215,0.0001801907072,In2O3,In2xGexO3,0,In2O3,7396.88739,solid state reaction,polycrystalline,Berardan2008SSC,http://dx.doi.org/10.1016/j.ssc.2007.12.033,Thermal conductivity error is +/- 10%,1035.51,16,5,80,12.943875,Marezio,http://dx.doi.org/10.1107/S0365110X66001749,14388,0.005599587951,206,48
,349,400,0.000149487,-0.000172722,6.77329,0.01178561394,0.000172722,0.07982738107,0.0001995684527,In2O3,In2xGexO3,0,In2O3,6689.54491,solid state reaction,polycrystalline,Berardan2008SSC,http://dx.doi.org/10.1016/j.ssc.2007.12.033,Thermal conductivity error is +/- 10%,1035.51,16,5,80,12.943875,Marezio,http://dx.doi.org/10.1107/S0365110X66001749,14388,0.00963932717,206,48
,350,700,0.000194842,-0.000202219,3.86562,0.03800495463,0.000202219,0.1469127127,0.0002098753039,In2O3,In2xGexO3,0,In2O3,5132.363659,solid state reaction,polycrystalline,Berardan2008SSC,http://dx.doi.org/10.1016/j.ssc.2007.12.033,Thermal conductivity error is +/- 10%,1035.51,16,5,80,12.943875,Marezio,http://dx.doi.org/10.1107/S0365110X66001749,14388,0.02267702756,206,48
,351,1000,0.000229674,-0.000222736,2.97623,0.07257758417,0.000222736,0.2160075833,0.0002160075833,In2O3,In2xGexO3,0,In2O3,4353.997405,solid state reaction,polycrystalline,Berardan2008SSC,http://dx.doi.org/10.1016/j.ssc.2007.12.033,Thermal conductivity error is +/- 10%,1035.51,16,5,80,12.943875,Marezio,http://dx.doi.org/10.1107/S0365110X66001749,14388,0.03569533829,206,48
,352,300,0.0000210578,-0.0000885671,9.1565,0.01220460161,0.0000885671,0.1117514347,0.0003725047822,In1.998Ge0.002O3,In2xGexO3,0.002,In2O3,47488.34161,solid state reaction,polycrystalline,Berardan2008SSC,http://dx.doi.org/10.1016/j.ssc.2007.12.033,Thermal conductivity error is +/- 10%,1035.51,16,5,80,12.943875,Marezio,http://dx.doi.org/10.1107/S0365110X66001749,14388,0.03796370454,206,48
,353,400,0.000023498,-0.000105832,6.85319,0.02782084562,0.000105832,0.190661541,0.0004766538524,In1.998Ge0.002O3,In2xGexO3,0.002,In2O3,42556.81335,solid state reaction,polycrystalline,Berardan2008SSC,http://dx.doi.org/10.1016/j.ssc.2007.12.033,Thermal conductivity error is +/- 10%,1035.51,16,5,80,12.943875,Marezio,http://dx.doi.org/10.1107/S0365110X66001749,14388,0.06060746868,206,48
,354,700,0.0000337115,-0.000146168,3.92271,0.1130936888,0.000146168,0.4436337439,0.0006337624913,In1.998Ge0.002O3,In2xGexO3,0.002,In2O3,29663.46796,solid state reaction,polycrystalline,Berardan2008SSC,http://dx.doi.org/10.1016/j.ssc.2007.12.033,Thermal conductivity error is +/- 10%,1035.51,16,5,80,12.943875,Marezio,http://dx.doi.org/10.1107/S0365110X66001749,14388,0.1291586767,206,48
,355,1000,0.000044955,-0.000177832,2.93072,0.2400310891,0.000177832,0.7034639133,0.0007034639133,In1.998Ge0.002O3,In2xGexO3,0.002,In2O3,22244.46669,solid state reaction,polycrystalline,Berardan2008SSC,http://dx.doi.org/10.1016/j.ssc.2007.12.033,Thermal conductivity error is +/- 10%,1035.51,16,5,80,12.943875,Marezio,http://dx.doi.org/10.1107/S0365110X66001749,14388,0.1851985134,206,48
,356,300,0.00000836795,-0.0000504768,9.71545,0.009402057151,0.0000504768,0.09134521615,0.0003044840538,In1.994Ge0.006O3,In2xGexO3,0.006,In2O3,119503.5821,solid state reaction,polycrystalline,Berardan2008SSC,http://dx.doi.org/10.1016/j.ssc.2007.12.033,Thermal conductivity error is +/- 10%,1035.51,16,5,80,12.943875,Marezio,http://dx.doi.org/10.1107/S0365110X66001749,14388,0.09003867254,206,48
,357,400,0.00000942337,-0.0000624767,7.20692,0.02299006562,0.0000624767,0.1656875637,0.0004142189093,In1.994Ge0.006O3,In2xGexO3,0.006,In2O3,106119.1485,solid state reaction,polycrystalline,Berardan2008SSC,http://dx.doi.org/10.1016/j.ssc.2007.12.033,Thermal conductivity error is +/- 10%,1035.51,16,5,80,12.943875,Marezio,http://dx.doi.org/10.1107/S0365110X66001749,14388,0.1437122778,206,48
,358,700,0.0000129155,-0.0000941419,4.58432,0.1047798589,0.0000941419,0.4803444028,0.0006862062898,In1.994Ge0.006O3,In2xGexO3,0.006,In2O3,77426.34819,solid state reaction,polycrystalline,Berardan2008SSC,http://dx.doi.org/10.1016/j.ssc.2007.12.033,Thermal conductivity error is +/- 10%,1035.51,16,5,80,12.943875,Marezio,http://dx.doi.org/10.1107/S0365110X66001749,14388,0.288470706,206,48
,359,1000,0.0000168341,-0.000119305,3.48967,0.2422942052,0.000119305,0.8455268191,0.0008455268191,In1.994Ge0.006O3,In2xGexO3,0.006,In2O3,59403.2351,solid state reaction,polycrystalline,Berardan2008SSC,http://dx.doi.org/10.1016/j.ssc.2007.12.033,Thermal conductivity error is +/- 10%,1035.51,16,5,80,12.943875,Marezio,http://dx.doi.org/10.1107/S0365110X66001749,14388,0.4153512901,206,48
,360,300,0.00000722981,-0.0000467607,9.41949,0.009632277567,0.0000467607,0.09073114222,0.0003024371407,In1.985Ge0.015O3,In2xGexO3,0.015,In2O3,138316.2213,solid state reaction,polycrystalline,Berardan2008SSC,http://dx.doi.org/10.1016/j.ssc.2007.12.033,Thermal conductivity error is +/- 10%,1035.51,16,5,80,12.943875,Marezio,http://dx.doi.org/10.1107/S0365110X66001749,14388,0.1074872143,206,48
,361,400,0.00000817897,-0.0000565928,7.04775,0.02222456398,0.0000565928,0.1566331708,0.0003915829269,In1.985Ge0.015O3,In2xGexO3,0.015,In2O3,122264.784,solid state reaction,polycrystalline,Berardan2008SSC,http://dx.doi.org/10.1016/j.ssc.2007.12.033,Thermal conductivity error is +/- 10%,1035.51,16,5,80,12.943875,Marezio,http://dx.doi.org/10.1107/S0365110X66001749,14388,0.1693170574,206,48
,362,700,0.0000113128,-0.0000833032,4.61902,0.09296114352,0.0000833032,0.4293893812,0.0006134134017,In1.985Ge0.015O3,In2xGexO3,0.015,In2O3,88395.44587,solid state reaction,polycrystalline,Berardan2008SSC,http://dx.doi.org/10.1016/j.ssc.2007.12.033,Thermal conductivity error is +/- 10%,1035.51,16,5,80,12.943875,Marezio,http://dx.doi.org/10.1107/S0365110X66001749,14388,0.3268646196,206,48
,363,1000,0.0000143465,-0.000108464,3.53581,0.2319190112,0.000108464,0.820021559,0.000820021559,In1.985Ge0.015O3,In2xGexO3,0.015,In2O3,69703.41198,solid state reaction,polycrystalline,Berardan2008SSC,http://dx.doi.org/10.1016/j.ssc.2007.12.033,Thermal conductivity error is +/- 10%,1035.51,16,5,80,12.943875,Marezio,http://dx.doi.org/10.1107/S0365110X66001749,14388,0.4810109289,206,48
,364,300,0.00000896151,-0.0000507871,8.86791,0.00973700995,0.0000507871,0.08634692791,0.000287823093,In1.94Ge0.06O3,In2xGexO3,0.06,In2O3,111588.3372,solid state reaction,polycrystalline,Berardan2008SSC,http://dx.doi.org/10.1016/j.ssc.2007.12.033,,1035.51,16,5,80,12.943875,Marezio,http://dx.doi.org/10.1107/S0365110X66001749,14388,0.09211038774,206,48
,365,400,0.00000995442,-0.0000606186,6.6037,0.0223598301,0.0000606186,0.14765761,0.0003691440251,In1.94Ge0.06O3,In2xGexO3,0.06,In2O3,100457.887,solid state reaction,polycrystalline,Berardan2008SSC,http://dx.doi.org/10.1016/j.ssc.2007.12.033,,1035.51,16,5,80,12.943875,Marezio,http://dx.doi.org/10.1107/S0365110X66001749,14388,0.148472671,206,48
,366,700,0.0000139586,-0.0000885677,3.89999,0.1008656793,0.0000885677,0.3933751407,0.0005619644866,In1.94Ge0.06O3,In2xGexO3,0.06,In2O3,71640.42239,solid state reaction,polycrystalline,Berardan2008SSC,http://dx.doi.org/10.1016/j.ssc.2007.12.033,,1035.51,16,5,80,12.943875,Marezio,http://dx.doi.org/10.1107/S0365110X66001749,14388,0.3137491159,206,48
,367,1000,0.0000177828,-0.000114967,3.06296,0.2426637632,0.000114967,0.7432694002,0.0007432694002,In1.94Ge0.06O3,In2xGexO3,0.06,In2O3,56234.11386,solid state reaction,polycrystalline,Berardan2008SSC,http://dx.doi.org/10.1016/j.ssc.2007.12.033,,1035.51,16,5,80,12.943875,Marezio,http://dx.doi.org/10.1107/S0365110X66001749,14388,0.4479694081,206,48
,368,300,0.0000132139,-0.0000532639,6.84738,0.009406579575,0.0000532639,0.06441042485,0.0002147014162,In1.9Ge0.1O3,In2xGexO3,0.1,In2O3,75677.88465,solid state reaction,polycrystalline,Berardan2008SSC,http://dx.doi.org/10.1016/j.ssc.2007.12.033,,1035.51,16,5,80,12.943875,Marezio,http://dx.doi.org/10.1107/S0365110X66001749,14388,0.08090132513,206,48
,369,400,0.0000143465,-0.0000655729,5.09141,0.02354641204,0.0000655729,0.1198844377,0.0002997110943,In1.9Ge0.1O3,In2xGexO3,0.1,In2O3,69703.41198,solid state reaction,polycrystalline,Berardan2008SSC,http://dx.doi.org/10.1016/j.ssc.2007.12.033,Thermal conductivity error is +/- 10%,1035.51,16,5,80,12.943875,Marezio,http://dx.doi.org/10.1107/S0365110X66001749,14388,0.1336182513,206,48
,370,700,0.000017302,-0.0000932129,3.24419,0.1083546343,0.0000932129,0.351523021,0.0005021757442,In1.9Ge0.1O3,In2xGexO3,0.1,In2O3,57796.7865,solid state reaction,polycrystalline,Berardan2008SSC,http://dx.doi.org/10.1016/j.ssc.2007.12.033,Thermal conductivity error is +/- 10%,1035.51,16,5,80,12.943875,Marezio,http://dx.doi.org/10.1107/S0365110X66001749,14388,0.3042883165,206,48
,371,1000,0.0000208663,-0.000117444,2.51443,0.2628915772,0.000117444,0.6610224686,0.0006610224686,In1.9Ge0.1O3,In2xGexO3,0.1,In2O3,47924.1648,solid state reaction,polycrystalline,Berardan2008SSC,http://dx.doi.org/10.1016/j.ssc.2007.12.033,Thermal conductivity error is +/- 10%,1035.51,16,5,80,12.943875,Marezio,http://dx.doi.org/10.1107/S0365110X66001749,14388,0.4650555478,206,48
,372,300,0.0000287298,-0.0000523343,3.23848,0.008831211217,0.0000523343,0.0285997009,0.00009533233634,In1.8Ge0.2O3,In2xGexO3,0.2,In2O3,34807.06444,solid state reaction,polycrystalline,Berardan2008SSC,http://dx.doi.org/10.1016/j.ssc.2007.12.033,Thermal conductivity error is +/- 10%,1035.51,16,5,80,12.943875,Marezio,http://dx.doi.org/10.1107/S0365110X66001749,14388,0.07867509193,206,48
,373,400,0.000027953,-0.0000640245,2.61135,0.02246254052,0.0000640245,0.05865755519,0.000146643888,In1.8Ge0.2O3,In2xGexO3,0.2,In2O3,35774.33549,solid state reaction,polycrystalline,Berardan2008SSC,http://dx.doi.org/10.1016/j.ssc.2007.12.033,Thermal conductivity error is +/- 10%,1035.51,16,5,80,12.943875,Marezio,http://dx.doi.org/10.1107/S0365110X66001749,14388,0.1337076663,206,48
,374,700,0.0000243728,-0.0000864,1.83597,0.1167762486,0.0000864,0.2143976892,0.0003062824132,In1.8Ge0.2O3,In2xGexO3,0.2,In2O3,41029.34419,solid state reaction,polycrystalline,Berardan2008SSC,http://dx.doi.org/10.1016/j.ssc.2007.12.033,Thermal conductivity error is +/- 10%,1035.51,16,5,80,12.943875,Marezio,http://dx.doi.org/10.1107/S0365110X66001749,14388,0.3816953429,206,48
,375,1000,0.0000267047,-0.000110012,1.63073,0.2779139558,0.000110012,0.4532026252,0.0004532026252,In1.8Ge0.2O3,In2xGexO3,0.2,In2O3,37446.5918,solid state reaction,polycrystalline,Berardan2008SSC,http://dx.doi.org/10.1016/j.ssc.2007.12.033,Thermal conductivity error is +/- 10%,1035.51,16,5,80,12.943875,Marezio,http://dx.doi.org/10.1107/S0365110X66001749,14388,0.5602992769,206,48
,376,300,0.07717915156,-0.00039,1.87927,0.0003146018614,0.00039,0.0005912218401,0.000001970739467,LaCoO3,La1-xSrxCoO3,0,LaCoO3,12.95686698,solid state reaction,polycrystalline,Iwasaki2008JSSC,http://dx.doi.org/10.1016/j.jssc.2008.08.078,,222.73,4,5,20,11.1365,Wang,http://dx.doi.org/10.1021/ic902072v,247225,0.00005046867468,15,8
,377,400,0.003838839899,0.0001403,,,0.0001403,0.002051045682,0.000005127614206,LaCoO3,La1-xSrxCoO3,0,LaCoO3,260.4953648,solid state reaction,polycrystalline,Iwasaki2008JSSC,http://dx.doi.org/10.1016/j.jssc.2008.08.078,,222.73,4,5,20,11.1365,Wang,http://dx.doi.org/10.1021/ic902072v,247225,,15,8
,378,700,0.00001358313447,0.00002876,,,0.00002876,0.04262612002,0.00006089445717,LaCoO3,La1-xSrxCoO3,0,LaCoO3,73620.70975,solid state reaction,polycrystalline,Iwasaki2008JSSC,http://dx.doi.org/10.1016/j.jssc.2008.08.078,,222.73,4,5,20,11.1365,Wang,http://dx.doi.org/10.1021/ic902072v,247225,,15,8
,379,1000,0.000009840111058,0.0000157,,,0.0000157,0.02504951403,0.00002504951403,LaCoO3,La1-xSrxCoO3,0,LaCoO3,101624.8693,solid state reaction,polycrystalline,Iwasaki2008JSSC,http://dx.doi.org/10.1016/j.jssc.2008.08.078,,222.73,4,5,20,11.1365,Wang,http://dx.doi.org/10.1021/ic902072v,247225,,15,8
,380,300,0.001570362804,0.000395,1.807,0.0164951889,0.000395,0.02980680634,0.00009935602115,La0.99Sr0.01CoO3,La1-xSrxCoO3,0.01,LaCoO3,636.7955209,solid state reaction,polycrystalline,Iwasaki2008JSSC,http://dx.doi.org/10.1016/j.jssc.2008.08.078,,222.73,4,5,20,11.1365,Wang,http://dx.doi.org/10.1021/ic902072v,247225,0.002579603328,15,8
,381,400,0.0007413102413,0.000304,,,0.000304,0.0498663015,0.0001246657538,La0.99Sr0.01CoO3,La1-xSrxCoO3,0.01,LaCoO3,1348.962883,solid state reaction,polycrystalline,Iwasaki2008JSSC,http://dx.doi.org/10.1016/j.jssc.2008.08.078,,222.73,4,5,20,11.1365,Wang,http://dx.doi.org/10.1021/ic902072v,247225,,15,8
,382,700,0.00001230268771,0.00003248,,,0.00003248,0.06002471147,0.00008574958782,La0.99Sr0.01CoO3,La1-xSrxCoO3,0.01,LaCoO3,81283.05162,solid state reaction,polycrystalline,Iwasaki2008JSSC,http://dx.doi.org/10.1016/j.jssc.2008.08.078,,222.73,4,5,20,11.1365,Wang,http://dx.doi.org/10.1021/ic902072v,247225,,15,8
,383,1000,0.000009506047937,0.00001856,,,0.00001856,0.03623730937,0.00003623730937,La0.99Sr0.01CoO3,La1-xSrxCoO3,0.01,LaCoO3,105196.1874,solid state reaction,polycrystalline,Iwasaki2008JSSC,http://dx.doi.org/10.1016/j.jssc.2008.08.078,,222.73,4,5,20,11.1365,Wang,http://dx.doi.org/10.1021/ic902072v,247225,,15,8
,384,300,0.0006918309709,0.00033,1.8,0.02623473184,0.00033,0.04722251731,0.000157408391,La0.98Sr0.02CoO3,La1-xSrxCoO3,0.02,LaCoO3,1445.439771,solid state reaction,polycrystalline,Iwasaki2008JSSC,http://dx.doi.org/10.1016/j.jssc.2008.08.078,,222.73,4,5,20,11.1365,Wang,http://dx.doi.org/10.1021/ic902072v,247225,0.005878121734,15,8
,385,400,0.0003380648362,0.0002435,,,0.0002435,0.07015488587,0.0001753872147,La0.98Sr0.02CoO3,La1-xSrxCoO3,0.02,LaCoO3,2958.012467,solid state reaction,polycrystalline,Iwasaki2008JSSC,http://dx.doi.org/10.1016/j.jssc.2008.08.078,,222.73,4,5,20,11.1365,Wang,http://dx.doi.org/10.1021/ic902072v,247225,,15,8
,386,700,0.00001096478196,0.00002876,,,0.00002876,0.05280509198,0.00007543584568,La0.98Sr0.02CoO3,La1-xSrxCoO3,0.02,LaCoO3,91201.08394,solid state reaction,polycrystalline,Iwasaki2008JSSC,http://dx.doi.org/10.1016/j.jssc.2008.08.078,,222.73,4,5,20,11.1365,Wang,http://dx.doi.org/10.1021/ic902072v,247225,,15,8
,387,1000,0.000009162204901,0.0000176,,,0.0000176,0.03380845586,0.00003380845586,La0.98Sr0.02CoO3,La1-xSrxCoO3,0.02,LaCoO3,109144.0336,solid state reaction,polycrystalline,Iwasaki2008JSSC,http://dx.doi.org/10.1016/j.jssc.2008.08.078,,222.73,4,5,20,11.1365,Wang,http://dx.doi.org/10.1021/ic902072v,247225,,15,8
,388,300,0.0001595879147,0.0002147,1.8,0.0481407485,0.0002147,0.0866533473,0.000288844491,La0.95Sr0.05CoO3,La1-xSrxCoO3,0.05,LaCoO3,6266.138647,solid state reaction,polycrystalline,Iwasaki2008JSSC,http://dx.doi.org/10.1016/j.jssc.2008.08.078,,222.95,4,5,20,11.1475,Wang,http://dx.doi.org/10.1021/ic902072v,247230,0.02548229716,15,8
,389,400,0.00007277798045,0.000129,,,0.000129,0.09146173002,0.0002286543251,La0.95Sr0.05CoO3,La1-xSrxCoO3,0.05,LaCoO3,13740.41975,solid state reaction,polycrystalline,Iwasaki2008JSSC,http://dx.doi.org/10.1016/j.jssc.2008.08.078,,222.95,4,5,20,11.1475,Wang,http://dx.doi.org/10.1021/ic902072v,247230,,15,8