# Outliers,Original Index,Temperature (K),Electrical Resistivity (Ohm m),Seebeck Coefficient (V/K),Thermal Conductivity (W/(m K)),Figure of Merit,Thermopower (V/K),Thermal Conductivity x Figure of Merit (W/m K),Power Factor (W/(K^2 m)),Formula,Series,Series Index,Family,Electrical Conductivity (S/m),Preparative Route,Final Form,Authors,DOI,Comments,Cell Volume (A^3),Formula Units per Cell,Atoms per Formula Unit,Total Atoms Per Unit Cell,Average Atomic Volume,Author of Unit Cell,Unit Cell DOI,ICSD ID,Electronic over Total Thermal Conductivity,Space Group,Number of Symmetry Elements
,1039,300,0.00189785,-0.000343219,17.1,0.001088944895,0.000343219,0.01862095771,0.00006206985903,Nd2Cu0.98Zn0.02O4,Nd2(Cu0.98M0.02)O4,,Nd2CuO4,,"solid state reaction, air",polycrystalline,Kurosaki2003JAC,http://dx.doi.org/10.1002/chin.200318015,,189.28,2,7,14,13.52,Kaluzhskikh,http://dx.doi.org/10.1016/j.jssc.2011.01.035,261375,0.000225555326,139,32
,1040,400,0.00140548,-0.00029438,11.1,0.002221922693,0.00029438,0.02466334189,0.00006165835473,Nd2Cu0.98Zn0.02O4,Nd2(Cu0.98M0.02)O4,,Nd2CuO4,,"solid state reaction, air",polycrystalline,Kurosaki2003JAC,http://dx.doi.org/10.1002/chin.200318015,,189.28,2,7,14,13.52,Kaluzhskikh,http://dx.doi.org/10.1016/j.jssc.2011.01.035,261375,0.0006256078203,139,32
,1041,700,0.000763148,-0.000175632,5.22,0.005420334148,0.000175632,0.02829414425,0.00004042020607,Nd2Cu0.98Zn0.02O4,Nd2(Cu0.98M0.02)O4,,Nd2CuO4,,"solid state reaction, air",polycrystalline,Kurosaki2003JAC,http://dx.doi.org/10.1002/chin.200318015,,189.28,2,7,14,13.52,Kaluzhskikh,http://dx.doi.org/10.1016/j.jssc.2011.01.035,261375,0.00428754403,139,32
,1042,1000,0.000371163,-0.0000636816,3.63,0.003009931636,0.0000636816,0.01092605184,0.00001092605184,Nd2Cu0.98Zn0.02O4,Nd2(Cu0.98M0.02)O4,,Nd2CuO4,,"solid state reaction, air",polycrystalline,Kurosaki2003JAC,http://dx.doi.org/10.1002/chin.200318015,,189.28,2,7,14,13.52,Kaluzhskikh,http://dx.doi.org/10.1016/j.jssc.2011.01.035,261375,0.01811000311,139,32
,1043,300,0.0000053,-0.000045,2.402,0.04771966757,0.000045,0.1146226415,0.0003820754717,La3Te3.8Sb0.2,La3Te4-xMx,Sb1,La3Te4,,"solid state reaction, Ar",polycrystalline,May2010PRB,http://dx.doi.org/10.1103/PhysRevB.81.125205,,893.06,4,7,28,31.895,Bucher,http://dx.doi.org/10.1103/PhysRevB.11.500,642048,0.5749925377,220,48
,1044,400,0.00000589,-0.0000466,2.58,0.05716060594,0.0000466,0.1474743633,0.0003686859083,La3Te3.8Sb0.2,La3Te4-xMx,Sb1,La3Te4,,"solid state reaction, Ar",polycrystalline,May2010PRB,http://dx.doi.org/10.1103/PhysRevB.81.125205,,893.06,4,7,28,31.895,Bucher,http://dx.doi.org/10.1103/PhysRevB.11.500,642048,0.6422658296,220,48
,1045,700,0.00000802,-0.0000676,2.72,0.1466385507,0.0000676,0.3988568579,0.0005697955112,La3Te3.8Sb0.2,La3Te4-xMx,Sb1,La3Te4,,"solid state reaction, Ar",polycrystalline,May2010PRB,http://dx.doi.org/10.1103/PhysRevB.81.125205,,893.06,4,7,28,31.895,Bucher,http://dx.doi.org/10.1103/PhysRevB.11.500,642048,0.782969048,220,48
,1046,1000,0.0000103,-0.0000878,2.66,0.2813650631,0.0000878,0.748431068,0.000748431068,La3Te3.8Sb0.2,La3Te4-xMx,Sb1,La3Te4,,"solid state reaction, Ar",polycrystalline,May2010PRB,http://dx.doi.org/10.1103/PhysRevB.81.125205,,893.06,4,7,28,31.895,Bucher,http://dx.doi.org/10.1103/PhysRevB.11.500,642048,0.8905759544,220,48
,1047,300,0.000011,-0.000053,2.05,0.03737028825,0.000053,0.07660909091,0.0002553636364,La3Te3.65Sb0.35,La3Te4-xMx,Sb2,La3Te4,,"solid state reaction, Ar",polycrystalline,May2010PRB,http://dx.doi.org/10.1103/PhysRevB.81.125205,,893.06,4,7,28,31.895,Bucher,http://dx.doi.org/10.1103/PhysRevB.11.500,642048,0.3246119734,220,48
,1048,400,0.0000137,-0.000058,2.06,0.04767911558,0.000058,0.0982189781,0.0002455474453,La3Te3.65Sb0.35,La3Te4-xMx,Sb2,La3Te4,,"solid state reaction, Ar",polycrystalline,May2010PRB,http://dx.doi.org/10.1103/PhysRevB.81.125205,,893.06,4,7,28,31.895,Bucher,http://dx.doi.org/10.1103/PhysRevB.11.500,642048,0.3458294947,220,48
,1049,700,0.0000187,-0.0000872,1.98,0.1437554151,0.0000872,0.2846357219,0.0004066224599,La3Te3.65Sb0.35,La3Te4-xMx,Sb2,La3Te4,,"solid state reaction, Ar",polycrystalline,May2010PRB,http://dx.doi.org/10.1103/PhysRevB.81.125205,,893.06,4,7,28,31.895,Bucher,http://dx.doi.org/10.1103/PhysRevB.11.500,642048,0.4612974666,220,48
,1050,1000,0.0000225,-0.0001173,1.85,0.3305535135,0.0001173,0.611524,0.000611524,La3Te3.65Sb0.35,La3Te4-xMx,Sb2,La3Te4,,"solid state reaction, Ar",polycrystalline,May2010PRB,http://dx.doi.org/10.1103/PhysRevB.81.125205,,893.06,4,7,28,31.895,Bucher,http://dx.doi.org/10.1103/PhysRevB.11.500,642048,0.5861861862,220,48
,1051,300,0.00018,-0.000091,1.47,0.009388888889,0.000091,0.01380166667,0.00004600555556,La3Te3.35Sb0.65,La3Te4-xMx,Sb4,La3Te4,,"solid state reaction, Ar",polycrystalline,May2010PRB,http://dx.doi.org/10.1103/PhysRevB.81.125205,,893.06,4,7,28,31.895,Bucher,http://dx.doi.org/10.1103/PhysRevB.11.500,642048,0.02766439909,220,48
,1052,400,0.0000135,-0.0000899,1.36,0.1760786492,0.0000899,0.239466963,0.0005986674074,La3Te3.35Sb0.65,La3Te4-xMx,Sb4,La3Te4,,"solid state reaction, Ar",polycrystalline,May2010PRB,http://dx.doi.org/10.1103/PhysRevB.81.125205,,893.06,4,7,28,31.895,Bucher,http://dx.doi.org/10.1103/PhysRevB.11.500,642048,0.5315904139,220,48
,1053,700,0.0000721,-0.0001593,1.17,0.2105758028,0.0001593,0.2463736893,0.0003519624133,La3Te3.35Sb0.65,La3Te4-xMx,Sb4,La3Te4,,"solid state reaction, Ar",polycrystalline,May2010PRB,http://dx.doi.org/10.1103/PhysRevB.81.125205,,893.06,4,7,28,31.895,Bucher,http://dx.doi.org/10.1103/PhysRevB.11.500,642048,0.2024728238,220,48
,1054,1000,0.0000687,-0.0002212,0.987,0.7215997192,0.0002212,0.7122189229,0.0007122189229,La3Te3.35Sb0.65,La3Te4-xMx,Sb4,La3Te4,,"solid state reaction, Ar",polycrystalline,May2010PRB,http://dx.doi.org/10.1103/PhysRevB.81.125205,,893.06,4,7,28,31.895,Bucher,http://dx.doi.org/10.1103/PhysRevB.11.500,642048,0.3598453845,220,48
,1055,300,0.000071,-0.000071,1.967,0.01082867311,0.000071,0.0213,0.000071,La3Te3.35Bi0.65,La3Te4-xMx,Bi1,La3Te4,,"solid state reaction, Ar",polycrystalline,May2010PRB,http://dx.doi.org/10.1103/PhysRevB.81.125205,,893.06,4,7,28,31.895,Bucher,http://dx.doi.org/10.1103/PhysRevB.11.500,642048,0.0524141289,220,48
,1056,400,0.0000535,-0.0000695,1.83,0.01973443644,0.0000695,0.03611401869,0.00009028504673,La3Te3.35Bi0.65,La3Te4-xMx,Bi1,La3Te4,,"solid state reaction, Ar",polycrystalline,May2010PRB,http://dx.doi.org/10.1103/PhysRevB.81.125205,,893.06,4,7,28,31.895,Bucher,http://dx.doi.org/10.1103/PhysRevB.11.500,642048,0.09968847352,220,48
,1057,700,0.0000437,-0.0001306,1.56,0.1751371824,0.0001306,0.2732140046,0.0003903057208,La3Te3.35Bi0.65,La3Te4-xMx,Bi1,La3Te4,,"solid state reaction, Ar",polycrystalline,May2010PRB,http://dx.doi.org/10.1103/PhysRevB.81.125205,,893.06,4,7,28,31.895,Bucher,http://dx.doi.org/10.1103/PhysRevB.11.500,642048,0.2505427448,220,48
,1058,1000,0.0000527,-0.0001852,1.37,0.4750625355,0.0001852,0.6508356736,0.0006508356736,La3Te3.35Bi0.65,La3Te4-xMx,Bi1,La3Te4,,"solid state reaction, Ar",polycrystalline,May2010PRB,http://dx.doi.org/10.1103/PhysRevB.81.125205,,893.06,4,7,28,31.895,Bucher,http://dx.doi.org/10.1103/PhysRevB.11.500,642048,0.3379548193,220,48
,1059,300,0.0000061,-0.00004087,2.46,0.03339378049,0.00004087,0.0821487,0.000273829,La2.99Te4,La3Te4-xMx,La1,La3Te4,,"solid state reaction, Ar",polycrystalline,May2010PRB,http://dx.doi.org/10.1103/PhysRevB.81.125205,,893.06,4,7,28,31.895,Bucher,http://dx.doi.org/10.1103/PhysRevB.11.500,642048,0.487804878,220,48
,1060,400,0.0000061,-0.0000416,2.605,0.04356212832,0.0000416,0.1134793443,0.0002836983607,La2.99Te4,La3Te4-xMx,La1,La3Te4,,"solid state reaction, Ar",polycrystalline,May2010PRB,http://dx.doi.org/10.1103/PhysRevB.81.125205,,893.06,4,7,28,31.895,Bucher,http://dx.doi.org/10.1103/PhysRevB.11.500,642048,0.6142034549,220,48
,1061,700,0.00000802,-0.0000576,2.84,0.1019648063,0.0000576,0.2895800499,0.0004136857855,La2.99Te4,La3Te4-xMx,La1,La3Te4,,"solid state reaction, Ar",polycrystalline,May2010PRB,http://dx.doi.org/10.1103/PhysRevB.81.125205,,893.06,4,7,28,31.895,Bucher,http://dx.doi.org/10.1103/PhysRevB.11.500,642048,0.7498858488,220,48
,1062,1000,0.00000974,-0.0000747,2.87,0.1996182988,0.0000747,0.5729045175,0.0005729045175,La2.99Te4,La3Te4-xMx,La1,La3Te4,,"solid state reaction, Ar",polycrystalline,May2010PRB,http://dx.doi.org/10.1103/PhysRevB.81.125205,,893.06,4,7,28,31.895,Bucher,http://dx.doi.org/10.1103/PhysRevB.11.500,642048,0.872868805,220,48
,1063,300,0.000027,-0.000041,1.24,0.01506272401,0.000041,0.01867777778,0.00006225925926,La2.74Te4,La3Te4-xMx,La2,La3Te4,,"solid state reaction, Ar",polycrystalline,May2010PRB,http://dx.doi.org/10.1103/PhysRevB.81.125205,,893.06,4,7,28,31.895,Bucher,http://dx.doi.org/10.1103/PhysRevB.11.500,642048,0.2186379928,220,48
,1064,400,0.0000268,-0.000089,1.17,0.1010460518,0.000089,0.1182238806,0.0002955597015,La2.74Te4,La3Te4-xMx,La2,La3Te4,,"solid state reaction, Ar",polycrystalline,May2010PRB,http://dx.doi.org/10.1103/PhysRevB.81.125205,,893.06,4,7,28,31.895,Bucher,http://dx.doi.org/10.1103/PhysRevB.11.500,642048,0.3112641919,220,48
,1065,700,0.0000425,-0.000159,1,0.4163929412,0.000159,0.4163929412,0.0005948470588,La2.74Te4,La3Te4-xMx,La2,La3Te4,,"solid state reaction, Ar",polycrystalline,May2010PRB,http://dx.doi.org/10.1103/PhysRevB.81.125205,,893.06,4,7,28,31.895,Bucher,http://dx.doi.org/10.1103/PhysRevB.11.500,642048,0.4018823529,220,48
,1066,1000,0.0000639,-0.000215,0.893,0.8100738311,0.000215,0.7233959311,0.0007233959311,La2.74Te4,La3Te4-xMx,La2,La3Te4,,"solid state reaction, Ar",polycrystalline,May2010PRB,http://dx.doi.org/10.1103/PhysRevB.81.125205,,893.06,4,7,28,31.895,Bucher,http://dx.doi.org/10.1103/PhysRevB.11.500,642048,0.4275998156,220,48
,1067,300,0.00296735905,-0.00021,2.78,0.001603780576,0.00021,0.00445851,0.0000148617,Zn0.9975Al0.0025O,Zn1-xAlxO,0.0025,ZnO,,"microwave solvothermal, air",polycrystalline,Jood2011NL,http://dx.doi.org/10.1021/nl202439h,,47.62,2,2,4,11.905,Abrahams,http://dx.doi.org/10.1107/S0567740869003876,26170,0.000887352518,186,12
,1068,400,0.001945525292,-0.00022,2.687,0.003703401563,0.00022,0.00995104,0.0000248776,Zn0.9975Al0.0025O,Zn1-xAlxO,0.0025,ZnO,,"microwave solvothermal, air",polycrystalline,Jood2011NL,http://dx.doi.org/10.1021/nl202439h,,47.62,2,2,4,11.905,Abrahams,http://dx.doi.org/10.1107/S0567740869003876,26170,0.001867004094,186,12
,1069,700,0.0006531678641,-0.000268,2.283,0.03371606693,0.000268,0.0769737808,0.000109962544,Zn0.9975Al0.0025O,Zn1-xAlxO,0.0025,ZnO,,"microwave solvothermal, air",polycrystalline,Jood2011NL,http://dx.doi.org/10.1021/nl202439h,,47.62,2,2,4,11.905,Abrahams,http://dx.doi.org/10.1107/S0567740869003876,26170,0.01145399912,186,12
,1070,1000,0.0001227144435,-0.000316,1.9089,0.4262803416,0.000316,0.813726544,0.000813726544,Zn0.9975Al0.0025O,Zn1-xAlxO,0.0025,ZnO,,"microwave solvothermal, air",polycrystalline,Jood2011NL,http://dx.doi.org/10.1021/nl202439h,,47.62,2,2,4,11.905,Abrahams,http://dx.doi.org/10.1107/S0567740869003876,26170,0.1041623972,186,12
,1071,300,0.00002825980203,-0.0000924,1.667,0.05437014387,0.0000924,0.09063502983,0.0003021167661,Sr0.61Ba0.39Nb2O6,Sr0.6Ba0.4Nb2O6,,Sr0.6Ba0.4Nb2O6,,"Czochralski method, anneal PO<sub>2</sub> 10<sup>-14</sup>",single crystal,Lee2010APL,http://dx.doi.org/10.1063/1.3291563,,610.4,5,9,45,13.56444444,Carrio,http://dx.doi.org/10.1590/S1516-14392002000100010,96013,0.1553840247,100,8
,1072,300,0.001050204695,-0.000186,1.667,0.005928401217,0.000186,0.009882644828,0.00003294214943,Sr0.61Ba0.39Nb2O6,Sr0.6Ba0.4Nb2O6,,Sr0.6Ba0.4Nb2O6,,"Czochralski method, anneal PO<sub>2</sub> 10<sup>-14</sup>",single crystal,Lee2010APL,http://dx.doi.org/10.1063/1.3291563,,610.4,5,9,45,13.56444444,Carrio,http://dx.doi.org/10.1590/S1516-14392002000100010,96013,0.004181205622,100,8
,1073,400,0.0001461363912,-0.000194,2.0205,0.05098544545,0.000194,0.1030160925,0.0002575402313,Sr0.61Ba0.39Nb2O6,Sr0.6Ba0.4Nb2O6,,Sr0.6Ba0.4Nb2O6,,"Czochralski method, anneal PO<sub>2</sub> 10<sup>-14</sup>",single crystal,Lee2010APL,http://dx.doi.org/10.1063/1.3291563,,610.4,5,9,45,13.56444444,Carrio,http://dx.doi.org/10.1590/S1516-14392002000100010,96013,0.03305465164,100,8
,1074,700,0.000014,-0.000201,2.1717,0.930169913,0.000201,2.02005,0.002885785714,Sr0.61Ba0.39Nb2O6,Sr0.6Ba0.4Nb2O6,,Sr0.6Ba0.4Nb2O6,,"Czochralski method, anneal PO<sub>2</sub> 10<sup>-14</sup>",single crystal,Lee2010APL,http://dx.doi.org/10.1063/1.3291563,,610.4,5,9,45,13.56444444,Carrio,http://dx.doi.org/10.1590/S1516-14392002000100010,96013,0.5617718838,100,8
,1075,300,0.0006188118812,-0.00022,1.667,0.01407577684,0.00022,0.02346432,0.0000782144,Sr0.61Ba0.39Nb2O6,Sr0.6Ba0.4Nb2O6,,Sr0.6Ba0.4Nb2O6,,"templated grain growth, air, anneal PO<sub>2</sub> 10<sup>-14</sup>",polycrystalline,Lee2011JMR,http://dx.doi.org/10.1557/jmr.2010.78,,610.4,5,9,45,13.56444444,Carrio,http://dx.doi.org/10.1590/S1516-14392002000100010,96013,0.007096052789,100,8
,1076,400,0.0001622586403,-0.00022,2.0205,0.05905255135,0.00022,0.11931568,0.0002982892,Sr0.61Ba0.39Nb2O6,Sr0.6Ba0.4Nb2O6,,Sr0.6Ba0.4Nb2O6,,"templated grain growth, air, anneal PO<sub>2</sub> 10<sup>-14</sup>",polycrystalline,Lee2011JMR,http://dx.doi.org/10.1557/jmr.2010.78,,610.4,5,9,45,13.56444444,Carrio,http://dx.doi.org/10.1590/S1516-14392002000100010,96013,0.02977029448,100,8
,1077,700,0.00008,-0.000216,2.1717,0.1879817654,0.000216,0.40824,0.0005832,Sr0.61Ba0.39Nb2O6,Sr0.6Ba0.4Nb2O6,,Sr0.6Ba0.4Nb2O6,,"templated grain growth, air, anneal PO<sub>2</sub> 10<sup>-14</sup>",polycrystalline,Lee2011JMR,http://dx.doi.org/10.1557/jmr.2010.78,,610.4,5,9,45,13.56444444,Carrio,http://dx.doi.org/10.1590/S1516-14392002000100010,96013,0.09831007966,100,8
,1078,300,0.0000114,-0.000019,2.45,0.00387755102,0.000019,0.0095,0.00003166666667,Sr4.5Nb4.5O15.5,SrnNbnO3n+2,,SrnNbnO3n+2,,"floating zone method, Ar",single crystal,Sakai2012JACS,http://dx.doi.org/10.1111/j.1551-2916.2012.05169.x,,735.99,2,26,52,14.15365385,Schuekel,http://dx.doi.org/10.1002/zaac.19855280909,48207,0.2620837809,31,4
,1079,300,0.00005,-0.000107,1.8,0.03816333333,0.000107,0.068694,0.00022898,Sr1.6La0.4Nb2O7,Sr2-xLaxNb2O7,,Sr2Nb2O7,,"floating zone method, Ar",single,Sakai2012JACS,http://dx.doi.org/10.1111/j.1551-2916.2012.05169.x,,597.36,4,11,44,13.57636364,Ishizawa,http://dx.doi.org/10.1107/S0567740875006462,187,0.08133333333,36,8
,1080,300,0.00001178240722,0.000120746,2.44922,0.1515670976,0.000120746,0.3712211668,0.001237403889,Si0.8Ge0.2,Si(1-x)Gex,,Si,,"ball milling, hot-pressed nanopowders",polycrystalline,Joshi2008NL,http://dx.doi.org/10.1021/nl8026795,,169.78,4,2,8,21.2225,Dismukes,http://dx.doi.org/10.1021/j100792a049,53910,0.2536584039,227,192
,1081,400,0.00001291917891,0.000138432,2.51953,0.2354932871,0.000138432,0.5933324017,0.001483331004,Si0.8Ge0.2,Si(1-x)Gex,,Si,,"ball milling, hot-pressed nanopowders",polycrystalline,Joshi2008NL,http://dx.doi.org/10.1021/nl8026795,,169.78,4,2,8,21.2225,Dismukes,http://dx.doi.org/10.1021/j100792a049,53910,0.2998440058,227,192
,1082,700,0.00001787073738,0.000191491,2.56641,0.5596625703,0.000191491,1.436323617,0.002051890882,Si0.8Ge0.2,Si(1-x)Gex,,Si,,"ball milling, hot-pressed nanopowders",polycrystalline,Joshi2008NL,http://dx.doi.org/10.1021/nl8026795,,169.78,4,2,8,21.2225,Dismukes,http://dx.doi.org/10.1021/j100792a049,53910,0.3724083026,227,192
,1083,1000,0.00002484144945,0.000231644,2.55469,0.8455260081,0.000231644,2.160056838,0.002160056838,Si0.8Ge0.2,Si(1-x)Gex,,Si,,"ball milling, hot-pressed nanopowders",polycrystalline,Joshi2008NL,http://dx.doi.org/10.1021/nl8026795,,169.78,4,2,8,21.2225,Dismukes,http://dx.doi.org/10.1021/j100792a049,53910,0.3844808255,227,192
,1084,300,0.000006788866259,0.000081,2.85,0.1017300316,0.000081,0.28993059,0.0009664353,Pb0.96Sr0.4TeNa0.2,"PbTe  (4mol% SrTe, 2mol% Na)",,PbTe,,sparks plasma sintering,polycrystalline,Biswas2012N,http://dx.doi.org/10.1038/nature11439,,269.84,4,2,8,33.73,Noda,http://dx.doi.org/10.1107/S0108270187091509,63099,0.3783284211,225,192
,1085,400,0.000008445945946,0.000128,2.126,0.3649794167,0.000128,0.77594624,0.0019398656,Pb0.96Sr0.4TeNa0.2,"PbTe  (4mol% SrTe, 2mol% Na)",,PbTe,,sparks plasma sintering,polycrystalline,Biswas2012N,http://dx.doi.org/10.1038/nature11439,,269.84,4,2,8,33.73,Noda,http://dx.doi.org/10.1107/S0108270187091509,63099,0.5435484478,225,192
,1086,700,0.00002123142251,0.000239,1.18,1.595999466,0.000239,1.88327937,0.0026903991,Pb0.96Sr0.4TeNa0.2,"PbTe  (4mol% SrTe, 2mol% Na)",,PbTe,,sparks plasma sintering,polycrystalline,Biswas2012N,http://dx.doi.org/10.1038/nature11439,,269.84,4,2,8,33.73,Noda,http://dx.doi.org/10.1107/S0108270187091509,63099,0.6817525424,225,192
,1087,1000,0.00003154574132,0.000265,0.98,2.271563776,0.000265,2.2261325,0.0022261325,Pb0.96Sr0.4TeNa0.2,"PbTe  (4mol% SrTe, 2mol% Na)",,PbTe,,sparks plasma sintering,polycrystalline,Biswas2012N,http://dx.doi.org/10.1038/nature11439,,269.84,4,2,8,33.73,Noda,http://dx.doi.org/10.1107/S0108270187091509,63099,0.7892653061,225,192
,1088,300,0.000004095004095,0.000068,3.065,0.1105234062,0.000068,0.33875424,0.0011291808,Pb0.98Sr0.2TeNa0.1,"PbTe  (2 mol% SrTe, 1 mol% Na)",,PbTe,,melting,polycrystalline,Biswas2012N,http://dx.doi.org/10.1038/nature11439,,269.84,4,2,8,33.73,Noda,http://dx.doi.org/10.1107/S0108270187091509,63099,0.5832117455,225,192
,1089,400,0.000007067137809,0.000117,2.23,0.3474427803,0.000117,0.7747974,0.0019369935,Pb0.98Sr0.2TeNa0.1,"PbTe  (2 mol% SrTe, 1 mol% Na)",,PbTe,,melting,polycrystalline,Biswas2012N,http://dx.doi.org/10.1038/nature11439,,269.84,4,2,8,33.73,Noda,http://dx.doi.org/10.1107/S0108270187091509,63099,0.6193004484,225,192
,1090,700,0.00003012048193,0.000263,1.03,1.560667534,0.000263,1.60748756,0.0022964108,Pb0.98Sr0.2TeNa0.1,"PbTe  (2 mol% SrTe, 1 mol% Na)",,PbTe,,melting,polycrystalline,Biswas2012N,http://dx.doi.org/10.1038/nature11439,,269.84,4,2,8,33.73,Noda,http://dx.doi.org/10.1107/S0108270187091509,63099,0.5505398058,225,192
,1091,300,0.000004168403501,0.000064,4.29,0.06871541259,0.000064,0.29478912,0.0009826304,Pb0.98TeNa0.2,PbTe  (2 mol% Na),,PbTe,,melting,polycrystalline,Biswas2012N,http://dx.doi.org/10.1038/nature11439,,269.84,4,2,8,33.73,Noda,http://dx.doi.org/10.1107/S0108270187091509,63099,0.4093398601,225,192
,1092,400,0.000005760368664,0.000105,3.18,0.2407471698,0.000105,0.765576,0.00191394,Pb0.98TeNa0.2,PbTe  (2 mol% Na),,PbTe,,melting,polycrystalline,Biswas2012N,http://dx.doi.org/10.1038/nature11439,,269.84,4,2,8,33.73,Noda,http://dx.doi.org/10.1107/S0108270187091509,63099,0.5328100629,225,192
,1093,700,0.00002252252252,0.000236,1.44,1.202105333,0.000236,1.73103168,0.0024729024,Pb0.98TeNa0.2,PbTe  (2 mol% Na),,PbTe,,melting,polycrystalline,Biswas2012N,http://dx.doi.org/10.1038/nature11439,,269.84,4,2,8,33.73,Noda,http://dx.doi.org/10.1107/S0108270187091509,63099,0.5266333333,225,192
,1094,300,0.0000390198306,-0.000043647359,2.42053025,0.006051197141,0.000043647359,0.01464710573,0.00004882368576,W0.08Nb0.92O2.54,WxNb1xO2.5+0.5xy,0.08,WO3-Nb2O5,,sparks plasma sintering,polycrystalline,Gaultois2015D,https://escholarship.org/uc/item/2g00r631,,,,,,,,,,0.07750240634,,
,1095,400,0.0000430894144,-0.000058451946,2.4051656,0.01318688942,0.000058451946,0.03171665281,0.00007929163203,W0.08Nb0.92O2.54,WxNb1xO2.5+0.5xy,0.08,WO3-Nb2O5,,sparks plasma sintering,polycrystalline,Gaultois2015D,https://escholarship.org/uc/item/2g00r632,,,,,,,,,,0.09417469927,,
,1096,700,0.0000564170866,-0.000098148999,2.38171745,0.05018441842,0.000098148999,0.1195251051,0.0001707501501,W0.08Nb0.92O2.54,WxNb1xO2.5+0.5xy,0.08,WO3-Nb2O5,,sparks plasma sintering,polycrystalline,Gaultois2015D,https://escholarship.org/uc/item/2g00r633,,,,,,,,,,0.1271121231,,
,1097,1000,0.00007142314,-0.00013077099,2.392238,0.1000874211,0.00013077099,0.239432932,0.000239432932,W0.08Nb0.92O2.54,WxNb1xO2.5+0.5xy,0.08,WO3-Nb2O5,,sparks plasma sintering,polycrystalline,Gaultois2015D,https://escholarship.org/uc/item/2g00r634,,,,,,,,,,0.1428060156,,