# Outliers,Original Index,Temperature (K),Electrical Resistivity (Ohm m),Seebeck Coefficient (V/K),Thermal Conductivity (W/(m K)),Figure of Merit,Thermopower (V/K),Thermal Conductivity x Figure of Merit (W/m K),Power Factor (W/(K^2 m)),Formula,Series,Series Index,Family,Electrical Conductivity (S/m),Preparative Route,Final Form,Authors,DOI,Comments,Cell Volume (A^3),Formula Units per Cell,Atoms per Formula Unit,Total Atoms Per Unit Cell,Average Atomic Volume,Author of Unit Cell,Unit Cell DOI,ICSD ID,Electronic over Total Thermal Conductivity,Space Group,Number of Symmetry Elements
,506,300,0.00000857,0.00000630124,2.12496,0.0006540963353,0.00000630124,0.001389928549,0.000004633095162,Mo6Te6S2,Mo6Te8-xSx,2,Mo3Te4,,"solid state reaction, vacuum",polycrystalline,Kurosaki2003JACa,http://dx.doi.org/10.1016/S0925-8388(02)01002-2,,1039.77,6,7,42,24.75642857,Bars,http://dx.doi.org/10.1016/S0925-8388(02)01002-2,644477,0.4019569107,148,6
,507,400,0.00000887,0.00000806322,2.37444,0.001234787404,0.00000806322,0.002931928603,0.000007329821507,Mo6Te6S2,Mo6Te8-xSx,2,Mo3Te4,,"solid state reaction, vacuum",polycrystalline,Kurosaki2003JACa,http://dx.doi.org/10.1016/S0925-8388(02)01002-2,,1039.77,6,7,42,24.75642857,Bars,http://dx.doi.org/10.1016/S0925-8388(02)01002-2,644477,0.4634095697,148,6
,508,700,0.00000946,0.0000116892,2.93114,0.003449371099,0.0000116892,0.0101105896,0.00001444369943,Mo6Te6S2,Mo6Te8-xSx,2,Mo3Te4,,"solid state reaction, vacuum",polycrystalline,Kurosaki2003JACa,http://dx.doi.org/10.1016/S0925-8388(02)01002-2,,1039.77,6,7,42,24.75642857,Bars,http://dx.doi.org/10.1016/S0925-8388(02)01002-2,644477,0.6159708607,148,6
,509,1000,0.00001,0.0000146136,3.45435,0.006182271772,0.0000146136,0.0213557305,0.0000213557305,Mo6Te6S2,Mo6Te8-xSx,2,Mo3Te4,,"solid state reaction, vacuum",polycrystalline,Kurosaki2003JACa,http://dx.doi.org/10.1016/S0925-8388(02)01002-2,,1039.77,6,7,42,24.75642857,Bars,http://dx.doi.org/10.1016/S0925-8388(02)01002-2,644477,0.7063557543,148,6
,510,300,0.0000248814,0.000138814,,,0.000138814,0.2323341122,0.0007744470406,CuRh0.9Mg0.1O2,CuRh1-xMgxO2,0.1,CuCrO2,,"solid state reaction, air",polycrystalline,Kuriyama2006ICT,http://dx.doi.org/10.1109/ICT.2006.331289,,140.56,3,4,12,11.71333333,Bertaut,http://dx.doi.org/10.1016/0022-3697(61)90220-7,29214,,166,12
,511,400,0.0000270088,0.000153007,9.76717,0.03549838177,0.000153007,0.3467187294,0.0008667968236,CuRh0.9Mg0.1O2,CuRh1-xMgxO2,0.1,CuCrO2,,"solid state reaction, air",polycrystalline,Kuriyama2006ICT,http://dx.doi.org/10.1109/ICT.2006.331289,,140.56,3,4,12,11.71333333,Bertaut,http://dx.doi.org/10.1016/0022-3697(61)90220-7,29214,0.03699778991,166,12
,512,700,0.0000392099,0.000203027,10.0099,0.0735157109,0.000203027,0.7358849145,0.001051264164,CuRh0.9Mg0.1O2,CuRh1-xMgxO2,0.1,CuCrO2,,"solid state reaction, air",polycrystalline,Kuriyama2006ICT,http://dx.doi.org/10.1109/ICT.2006.331289,,140.56,3,4,12,11.71333333,Bertaut,http://dx.doi.org/10.1016/0022-3697(61)90220-7,29214,0.04351734517,166,12
,513,1000,0.0000552975,0.000265993,8.39186,0.1524672925,0.000265993,1.279484173,0.001279484173,CuRh0.9Mg0.1O2,CuRh1-xMgxO2,0.1,CuCrO2,,"solid state reaction, air",polycrystalline,Kuriyama2006ICT,http://dx.doi.org/10.1109/ICT.2006.331289,,140.56,3,4,12,11.71333333,Bertaut,http://dx.doi.org/10.1016/0022-3697(61)90220-7,29214,0.05258066798,166,12
,514,300,0.00004761904762,-0.0000536,4.37,0.004141795881,0.0000536,0.018099648,0.00006033216,Sr2Ti0.8Nb0.2O4,SrO(SrTi1-xNbxO3),"n=1, x0.2",SrTiO3,,"solid state reaction, Ar",polycrystalline,Wang2009JAP,http://dx.doi.org/10.1063/1.3117943,,187,2,7,14,13.35714286,Page,http://dx.doi.org/10.1063/1.3117943,162886,0.03517620137,221,48
,515,400,0.0000566893424,-0.0000676,3.59,0.008981678708,0.0000676,0.03224422656,0.0000806105664,Sr2Ti0.8Nb0.2O4,SrO(SrTi1-xNbxO3),"n=1, x0.2",SrTiO3,,"solid state reaction, Ar",polycrystalline,Wang2009JAP,http://dx.doi.org/10.1063/1.3117943,,187,2,7,14,13.35714286,Page,http://dx.doi.org/10.1063/1.3117943,162886,0.04795721448,221,48
,516,700,0.00008654262224,-0.0001103,2.48,0.03967960442,0.0001103,0.09840541897,0.00014057917,Sr2Ti0.8Nb0.2O4,SrO(SrTi1-xNbxO3),"n=1, x0.2",SrTiO3,,"solid state reaction, Ar",polycrystalline,Wang2009JAP,http://dx.doi.org/10.1063/1.3117943,,187,2,7,14,13.35714286,Page,http://dx.doi.org/10.1063/1.3117943,162886,0.07958040323,221,48
,517,1000,0.0001333333333,-0.000167,1.92,0.1089414063,0.000167,0.2091675,0.0002091675,Sr2Ti0.8Nb0.2O4,SrO(SrTi1-xNbxO3),"n=1, x0.2",SrTiO3,,"solid state reaction, Ar",polycrystalline,Wang2009JAP,http://dx.doi.org/10.1063/1.3117943,,187,2,7,14,13.35714286,Page,http://dx.doi.org/10.1063/1.3117943,162886,0.0953125,221,48
,518,300,0.00001858736059,-0.0000424,4.96,0.005849969032,0.0000424,0.0290158464,0.000096719488,Sr3Ti1.6Nb0.4O7,SrO(SrTi1-xNbxO3)2,"n=2, x0.2",SrTiO3,,"solid state reaction, Ar",polycrystalline,Wang2009JAP,http://dx.doi.org/10.1063/1.3117943,,305,2,12,24,12.70833333,Page,http://dx.doi.org/10.1063/1.3117943,162886,0.0793983871,221,48
,519,400,0.00002173913043,-0.00005716,3.89,0.01545441826,0.00005716,0.06011768704,0.0001502942176,Sr3Ti1.6Nb0.4O7,SrO(SrTi1-xNbxO3)2,"n=2, x0.2",SrTiO3,,"solid state reaction, Ar",polycrystalline,Wang2009JAP,http://dx.doi.org/10.1063/1.3117943,,305,2,12,24,12.70833333,Page,http://dx.doi.org/10.1063/1.3117943,162886,0.1154138817,221,48
,520,700,0.00004291845494,-0.0000983,2.72,0.05794181467,0.0000983,0.1576017359,0.000225145337,Sr3Ti1.6Nb0.4O7,SrO(SrTi1-xNbxO3)2,"n=2, x0.2",SrTiO3,,"solid state reaction, Ar",polycrystalline,Wang2009JAP,http://dx.doi.org/10.1063/1.3117943,,305,2,12,24,12.70833333,Page,http://dx.doi.org/10.1063/1.3117943,162886,0.1463102941,221,48
,521,1000,0.000078125,-0.000158,2.14,0.1493173832,0.000158,0.3195392,0.0003195392,Sr3Ti1.6Nb0.4O7,SrO(SrTi1-xNbxO3)2,"n=2, x0.2",SrTiO3,,"solid state reaction, Ar",polycrystalline,Wang2009JAP,http://dx.doi.org/10.1063/1.3117943,,305,2,12,24,12.70833333,Page,http://dx.doi.org/10.1063/1.3117943,162886,0.1459439252,221,48
,522,300,0.0000145137881,-0.00005214,10.42,0.005392806174,0.00005214,0.05619304033,0.0001873101344,SrTi0.8Nb0.2O3,SrO(SrTi1-xNbxO3)2,n infinity,SrTiO3,,"solid state reaction, Ar",polycrystalline,Wang2009JAP,http://dx.doi.org/10.1063/1.3117943,,240.63,4,5,20,12.0315,Page,http://dx.doi.org/10.1103/PhysRevLett.101.205502,162889,0.04840191939,140,32
,523,400,0.00001420454545,-0.0000624,8.62,0.01272021828,0.0000624,0.1096482816,0.000274120704,SrTi0.8Nb0.2O3,SrO(SrTi1-xNbxO3)2,n infinity,SrTiO3,,"solid state reaction, Ar",polycrystalline,Wang2009JAP,http://dx.doi.org/10.1063/1.3117943,,240.63,4,5,20,12.0315,Page,http://dx.doi.org/10.1103/PhysRevLett.101.205502,162889,0.07971044084,140,32
,524,700,0.00001709401709,-0.00011,4.92,0.1007103659,0.00011,0.495495,0.00070785,SrTi0.8Nb0.2O3,SrO(SrTi1-xNbxO3)2,n infinity,SrTiO3,,"solid state reaction, Ar",polycrystalline,Wang2009JAP,http://dx.doi.org/10.1063/1.3117943,,240.63,4,5,20,12.0315,Page,http://dx.doi.org/10.1103/PhysRevLett.101.205502,162889,0.2030853659,140,32
,525,1000,0.00002564102564,-0.0001649,3.14,0.3377351561,0.0001649,1.06048839,0.00106048839,SrTi0.8Nb0.2O3,SrO(SrTi1-xNbxO3)2,n infinity,SrTiO3,,"solid state reaction, Ar",polycrystalline,Wang2009JAP,http://dx.doi.org/10.1063/1.3117943,,240.63,4,5,20,12.0315,Page,http://dx.doi.org/10.1103/PhysRevLett.101.205502,162889,0.3030573248,140,32
,526,300,0.00007013212893,-0.000167,,,0.000167,0.119299102,0.0003976636732,Sr0.95La0.05TiO3,Sr1-xLaxTiO3,0.05,SrTiO3,,"solid state reaction, Ar",polycrystalline,Muta2003JAC,http://dx.doi.org/10.1016/S0925-8388(02)00972-6,,59.83,1,5,5,11.966,Howard,http://dx.doi.org/10.1063/1.342963,65091,,221,48
,527,400,0.00004427364655,-0.000188,,,0.000188,0.3193231437,0.0007983078592,Sr0.95La0.05TiO3,Sr1-xLaxTiO3,0.05,SrTiO3,,"solid state reaction, Ar",polycrystalline,Muta2003JAC,http://dx.doi.org/10.1016/S0925-8388(02)00972-6,,59.83,1,5,5,11.966,Howard,http://dx.doi.org/10.1063/1.342963,65091,,221,48
,528,700,0.00009176669236,-0.000251,,,0.000251,0.480574148,0.0006865344972,Sr0.95La0.05TiO3,Sr1-xLaxTiO3,0.05,SrTiO3,,"solid state reaction, Ar",polycrystalline,Muta2003JAC,http://dx.doi.org/10.1016/S0925-8388(02)00972-6,,59.83,1,5,5,11.966,Howard,http://dx.doi.org/10.1063/1.342963,65091,,221,48
,529,1000,0.0001832585944,-0.000285,,,0.000285,0.4432261433,0.0004432261433,Sr0.95La0.05TiO3,Sr1-xLaxTiO3,0.05,SrTiO3,,"solid state reaction, Ar",polycrystalline,Muta2003JAC,http://dx.doi.org/10.1016/S0925-8388(02)00972-6,,59.83,1,5,5,11.966,Howard,http://dx.doi.org/10.1063/1.342963,65091,,221,48
,530,300,0.00002614215056,-0.0000976,5.88,0.01859097866,0.0000976,0.1093149545,0.0003643831818,Sr0.9La0.1TiO3,Sr1-xLaxTiO3,0.1,SrTiO3,,"solid state reaction, Ar",polycrystalline,Muta2003JAC,http://dx.doi.org/10.1016/S0925-8388(02)00972-6,,59.83,1,5,5,11.966,Howard,http://dx.doi.org/10.1063/1.342963,65091,0.04762033469,221,48
,531,400,0.00001650322968,-0.000115,5.28,0.06070896174,0.000115,0.320543318,0.000801358295,Sr0.9La0.1TiO3,Sr1-xLaxTiO3,0.1,SrTiO3,,"solid state reaction, Ar",polycrystalline,Muta2003JAC,http://dx.doi.org/10.1016/S0925-8388(02)00972-6,,59.83,1,5,5,11.966,Howard,http://dx.doi.org/10.1063/1.342963,65091,0.1120074606,221,48
,532,700,0.00003658929251,-0.000179,3.83,0.1600483923,0.000179,0.6129853425,0.0008756933464,Sr0.9La0.1TiO3,Sr1-xLaxTiO3,0.1,SrTiO3,,"solid state reaction, Ar",polycrystalline,Muta2003JAC,http://dx.doi.org/10.1016/S0925-8388(02)00972-6,,59.83,1,5,5,11.966,Howard,http://dx.doi.org/10.1063/1.342963,65091,0.1218807394,221,48
,533,1000,0.00007932541666,-0.000221,3.15,0.195461682,0.000221,0.6157042983,0.0006157042983,Sr0.9La0.1TiO3,Sr1-xLaxTiO3,0.1,SrTiO3,,"solid state reaction, Ar",polycrystalline,Muta2003JAC,http://dx.doi.org/10.1016/S0925-8388(02)00972-6,,59.83,1,5,5,11.966,Howard,http://dx.doi.org/10.1063/1.342963,65091,0.0976488,221,48
,534,300,0.000006129704548,-0.0000537,,,0.0000537,0.141133556,0.0004704451866,Sr0.8La0.2TiO3,Sr1-xLaxTiO3,0.2,SrTiO3,,"solid state reaction, Ar",polycrystalline,Muta2003JAC,http://dx.doi.org/10.1016/S0925-8388(02)00972-6,,60,1,5,5,12,Howard,http://dx.doi.org/10.1063/1.342963,65094,,221,48
,535,400,0.000005336777334,-0.0000647,,,0.0000647,0.3137541432,0.0007843853581,Sr0.8La0.2TiO3,Sr1-xLaxTiO3,0.2,SrTiO3,,"solid state reaction, Ar",polycrystalline,Muta2003JAC,http://dx.doi.org/10.1016/S0925-8388(02)00972-6,,60,1,5,5,12,Howard,http://dx.doi.org/10.1063/1.342963,65094,,221,48
,536,700,0.00001192059927,-0.000113,,,0.000113,0.7498196857,0.00107117098,Sr0.8La0.2TiO3,Sr1-xLaxTiO3,0.2,SrTiO3,,"solid state reaction, Ar",polycrystalline,Muta2003JAC,http://dx.doi.org/10.1016/S0925-8388(02)00972-6,,60,1,5,5,12,Howard,http://dx.doi.org/10.1063/1.342963,65094,,221,48
,537,1000,0.00002380617961,-0.000158,,,0.000158,1.048635288,0.001048635288,Sr0.8La0.2TiO3,Sr1-xLaxTiO3,0.2,SrTiO3,,"solid state reaction, Ar",polycrystalline,Muta2003JAC,http://dx.doi.org/10.1016/S0925-8388(02)00972-6,,60,1,5,5,12,Howard,http://dx.doi.org/10.1063/1.342963,65094,,221,48
,538,300,0.0003141788935,-0.000271305,6.0761,0.0115673781,0.000271305,0.07028454606,0.0002342818202,TiNiSn,Ti1-xNbxNiSn,0,TiNiSn,,"arc-melted, vacuum",polycrystalline,Muta2009JAC,http://dx.doi.org/10.1016/j.jallcom.2008.02.041,,208.21,4,3,12,17.35083333,Stadnyk,http://dx.doi.org/10.1016/j.jssc.2010.09.042,174568,0.003834503711,216,96
,539,400,0.00008392923087,-0.000295891,5.1951,0.08031864027,0.000295891,0.4172633681,0.00104315842,TiNiSn,Ti1-xNbxNiSn,0,TiNiSn,,"arc-melted, vacuum",polycrystalline,Muta2009JAC,http://dx.doi.org/10.1016/j.jallcom.2008.02.041,,208.21,4,3,12,17.35083333,Stadnyk,http://dx.doi.org/10.1016/j.jssc.2010.09.042,174568,0.02238425593,216,96
,540,700,0.00002761042791,-0.000255058,4.5516,0.3623587173,0.000255058,1.649311938,0.002356159911,TiNiSn,Ti1-xNbxNiSn,0,TiNiSn,,"arc-melted, vacuum",polycrystalline,Muta2009JAC,http://dx.doi.org/10.1016/j.jallcom.2008.02.041,,208.21,4,3,12,17.35083333,Stadnyk,http://dx.doi.org/10.1016/j.jssc.2010.09.042,174568,0.1359097583,216,96
,541,1000,0.00001626680157,-0.000159717,6.4417,0.2434443076,0.000159717,1.568195197,0.001568195197,TiNiSn,Ti1-xNbxNiSn,0,TiNiSn,,"arc-melted, vacuum",polycrystalline,Muta2009JAC,http://dx.doi.org/10.1016/j.jallcom.2008.02.041,,208.21,4,3,12,17.35083333,Stadnyk,http://dx.doi.org/10.1016/j.jssc.2010.09.042,174568,0.2328558548,216,96
,542,300,0.00001155085205,-0.000177319,6.8928,0.1184737412,0.000177319,0.8166158036,0.002722052679,Ti0.99Nb0.01NiSn,Ti1-xNbxNiSn,0.01,TiNiSn,,"arc-melted, vacuum",polycrystalline,Muta2009JAC,http://dx.doi.org/10.1016/j.jallcom.2008.02.041,,208.21,4,3,12,17.35083333,Stadnyk,http://dx.doi.org/10.1016/j.jssc.2010.09.042,174568,0.09193934018,216,96
,543,400,0.00001240099357,-0.000192458,5.8617,0.2038223752,0.000192458,1.194745617,0.002986864041,Ti0.99Nb0.01NiSn,Ti1-xNbxNiSn,0.01,TiNiSn,,"arc-melted, vacuum",polycrystalline,Muta2009JAC,http://dx.doi.org/10.1016/j.jallcom.2008.02.041,,208.21,4,3,12,17.35083333,Stadnyk,http://dx.doi.org/10.1016/j.jssc.2010.09.042,174568,0.134267143,216,96
,544,700,0.00001275479293,-0.000211295,4.8184,0.508510843,0.000211295,2.450208646,0.003500298065,Ti0.99Nb0.01NiSn,Ti1-xNbxNiSn,0.01,TiNiSn,,"arc-melted, vacuum",polycrystalline,Muta2009JAC,http://dx.doi.org/10.1016/j.jallcom.2008.02.041,,208.21,4,3,12,17.35083333,Stadnyk,http://dx.doi.org/10.1016/j.jssc.2010.09.042,174568,0.2779147543,216,96
,545,1000,0.00001142317969,-0.000172594,6.2917,0.4144731227,0.000172594,2.607740546,0.002607740546,Ti0.99Nb0.01NiSn,Ti1-xNbxNiSn,0.01,TiNiSn,,"arc-melted, vacuum",polycrystalline,Muta2009JAC,http://dx.doi.org/10.1016/j.jallcom.2008.02.041,,208.21,4,3,12,17.35083333,Stadnyk,http://dx.doi.org/10.1016/j.jssc.2010.09.042,174568,0.3394961171,216,96
,546,300,0.00000653919594,-0.000139982,7.4261,0.1210543776,0.000139982,0.8989619138,0.002996539713,Ti0.98Nb0.02NiSn,Ti1-xNbxNiSn,0.02,TiNiSn,,"arc-melted, vacuum",polycrystalline,Muta2009JAC,http://dx.doi.org/10.1016/j.jallcom.2008.02.041,,208.21,4,3,12,17.35083333,Stadnyk,http://dx.doi.org/10.1016/j.jssc.2010.09.042,174568,0.1507391067,216,96
,547,400,0.000007272145501,-0.000158575,6.3283,0.2185645951,0.000158575,1.383142327,0.003457855817,Ti0.98Nb0.02NiSn,Ti1-xNbxNiSn,0.02,TiNiSn,,"arc-melted, vacuum",polycrystalline,Muta2009JAC,http://dx.doi.org/10.1016/j.jallcom.2008.02.041,,208.21,4,3,12,17.35083333,Stadnyk,http://dx.doi.org/10.1016/j.jssc.2010.09.042,174568,0.2120802364,216,96
,548,700,0.000009078364442,-0.000188543,5.085,0.5390391339,0.000188543,2.741013996,0.00391573428,Ti0.98Nb0.02NiSn,Ti1-xNbxNiSn,0.02,TiNiSn,,"arc-melted, vacuum",polycrystalline,Muta2009JAC,http://dx.doi.org/10.1016/j.jallcom.2008.02.041,,208.21,4,3,12,17.35083333,Stadnyk,http://dx.doi.org/10.1016/j.jssc.2010.09.042,174568,0.369989412,216,96
,549,1000,0.000009603657073,-0.000174312,5.975,0.5295171349,0.000174312,3.163864881,0.003163864881,Ti0.98Nb0.02NiSn,Ti1-xNbxNiSn,0.02,TiNiSn,,"arc-melted, vacuum",polycrystalline,Muta2009JAC,http://dx.doi.org/10.1016/j.jallcom.2008.02.041,,208.21,4,3,12,17.35083333,Stadnyk,http://dx.doi.org/10.1016/j.jssc.2010.09.042,174568,0.4252215565,216,96
,550,300,0.000003506643336,-0.0000962097,6.9595,0.1137861337,0.0000962097,0.7918945973,0.002639648658,Ti0.95Nb0.05NiSn,Ti1-xNbxNiSn,0.05,TiNiSn,,"arc-melted, vacuum",polycrystalline,Muta2009JAC,http://dx.doi.org/10.1016/j.jallcom.2008.02.041,,208.21,4,3,12,17.35083333,Stadnyk,http://dx.doi.org/10.1016/j.jssc.2010.09.042,174568,0.2999448754,216,96
,551,400,0.000003957747092,-0.00011094,6.3783,0.1950218778,0.00011094,1.243908043,0.003109770108,Ti0.95Nb0.05NiSn,Ti1-xNbxNiSn,0.05,TiNiSn,,"arc-melted, vacuum",polycrystalline,Muta2009JAC,http://dx.doi.org/10.1016/j.jallcom.2008.02.041,,208.21,4,3,12,17.35083333,Stadnyk,http://dx.doi.org/10.1016/j.jssc.2010.09.042,174568,0.3866311462,216,96
,552,700,0.00000566575448,-0.000146063,5.2517,0.50190418,0.000146063,2.635850182,0.00376550026,Ti0.95Nb0.05NiSn,Ti1-xNbxNiSn,0.05,TiNiSn,,"arc-melted, vacuum",polycrystalline,Muta2009JAC,http://dx.doi.org/10.1016/j.jallcom.2008.02.041,,208.21,4,3,12,17.35083333,Stadnyk,http://dx.doi.org/10.1016/j.jssc.2010.09.042,174568,0.5740242055,216,96
,553,1000,0.00000725805281,-0.000142549,5.4917,0.509801867,0.000142549,2.799678913,0.002799678913,Ti0.95Nb0.05NiSn,Ti1-xNbxNiSn,0.05,TiNiSn,,"arc-melted, vacuum",polycrystalline,Muta2009JAC,http://dx.doi.org/10.1016/j.jallcom.2008.02.041,,208.21,4,3,12,17.35083333,Stadnyk,http://dx.doi.org/10.1016/j.jssc.2010.09.042,174568,0.6121571098,216,96
,554,300,0.0003141788935,-0.000353714,10.1428,0.0117785244,0.000353714,0.1194672173,0.0003982240577,ZrNiSn,Zr1-yNbyNiSn,0,ZrNiSn,,"arc-melted, vacuum",polycrystalline,Muta2009JAC,http://dx.doi.org/10.1016/j.jallcom.2008.02.041,,226.87,4,3,12,18.90583333,Skolozdra,http://dx.doi.org/10.1016/0304-8853(93)90861-U,646828,0.002297080491,216,96
,555,400,0.00008742022904,-0.000342674,8.395,0.06400142725,0.000342674,0.5372919818,0.001343229954,ZrNiSn,Zr1-yNbyNiSn,0,ZrNiSn,,"arc-melted, vacuum",polycrystalline,Muta2009JAC,http://dx.doi.org/10.1016/j.jallcom.2008.02.041,,226.87,4,3,12,18.90583333,Skolozdra,http://dx.doi.org/10.1016/0304-8853(93)90861-U,646828,0.01329894461,216,96
,556,700,0.00002797367118,-0.000284671,5.9849,0.3388270932,0.000284671,2.02784627,0.002896923243,ZrNiSn,Zr1-yNbyNiSn,0,ZrNiSn,,"arc-melted, vacuum",polycrystalline,Muta2009JAC,http://dx.doi.org/10.1016/j.jallcom.2008.02.041,,226.87,4,3,12,18.90583333,Skolozdra,http://dx.doi.org/10.1016/0304-8853(93)90861-U,646828,0.1020191034,216,96
,557,1000,0.00001589817537,-0.000212937,6.6417,0.42941353,0.000212937,2.852035842,0.002852035842,ZrNiSn,Zr1-yNbyNiSn,0,ZrNiSn,,"arc-melted, vacuum",polycrystalline,Muta2009JAC,http://dx.doi.org/10.1016/j.jallcom.2008.02.041,,226.87,4,3,12,18.90583333,Skolozdra,http://dx.doi.org/10.1016/0304-8853(93)90861-U,646828,0.2310804945,216,96
,558,300,0.00001095069559,-0.000170876,9.6761,0.08266874385,0.000170876,0.7999110323,0.002666370108,Zr0.99Nb0.01NiSn,Zr1-yNbyNiSn,0.01,ZrNiSn,,"arc-melted, vacuum",polycrystalline,Muta2009JAC,http://dx.doi.org/10.1016/j.jallcom.2008.02.041,,226.87,4,3,12,18.90583333,Skolozdra,http://dx.doi.org/10.1016/0304-8853(93)90861-U,646828,0.06908265603,216,96
,559,400,0.00001240346999,-0.000189025,8.2117,0.1403208509,0.000189025,1.152272731,0.002880681829,Zr0.99Nb0.01NiSn,Zr1-yNbyNiSn,0.01,ZrNiSn,,"arc-melted, vacuum",polycrystalline,Muta2009JAC,http://dx.doi.org/10.1016/j.jallcom.2008.02.041,,226.87,4,3,12,18.90583333,Skolozdra,http://dx.doi.org/10.1016/0304-8853(93)90861-U,646828,0.0958238338,216,96
,560,700,0.00001348732259,-0.000228446,6.0517,0.447571084,0.000228446,2.708565929,0.003869379898,Zr0.99Nb0.01NiSn,Zr1-yNbyNiSn,0.01,ZrNiSn,,"arc-melted, vacuum",polycrystalline,Muta2009JAC,http://dx.doi.org/10.1016/j.jallcom.2008.02.041,,226.87,4,3,12,18.90583333,Skolozdra,http://dx.doi.org/10.1016/0304-8853(93)90861-U,646828,0.2092592819,216,96
,561,1000,0.00001214573915,-0.000210789,6.0617,0.6035003112,0.000210789,3.658237836,0.003658237836,Zr0.99Nb0.01NiSn,Zr1-yNbyNiSn,0.01,ZrNiSn,,"arc-melted, vacuum",polycrystalline,Muta2009JAC,http://dx.doi.org/10.1016/j.jallcom.2008.02.041,,226.87,4,3,12,18.90583333,Skolozdra,http://dx.doi.org/10.1016/0304-8853(93)90861-U,646828,0.3314144481,216,96
,562,300,0.000006157445891,-0.000131398,10.0594,0.08362306522,0.000131398,0.8411978623,0.002803992874,Zr0.98Nb0.02NiSn,Zr1-yNbyNiSn,0.02,ZrNiSn,,"arc-melted, vacuum",polycrystalline,Muta2009JAC,http://dx.doi.org/10.1016/j.jallcom.2008.02.041,,226.87,4,3,12,18.90583333,Skolozdra,http://dx.doi.org/10.1016/0304-8853(93)90861-U,646828,0.1181784798,216,96
,563,400,0.000006914768563,-0.000148254,8.6783,0.1465077244,0.000148254,1.271437985,0.003178594962,Zr0.98Nb0.02NiSn,Zr1-yNbyNiSn,0.02,ZrNiSn,,"arc-melted, vacuum",polycrystalline,Muta2009JAC,http://dx.doi.org/10.1016/j.jallcom.2008.02.041,,226.87,4,3,12,18.90583333,Skolozdra,http://dx.doi.org/10.1016/0304-8853(93)90861-U,646828,0.1626437989,216,96