# Outliers,Original Index,Temperature (K),Electrical Resistivity (Ohm m),Seebeck Coefficient (V/K),Thermal Conductivity (W/(m K)),Figure of Merit,Thermopower (V/K),Thermal Conductivity x Figure of Merit (W/m K),Power Factor (W/(K^2 m)),Formula,Series,Series Index,Family,Electrical Conductivity (S/m),Preparative Route,Final Form,Authors,DOI,Comments,Cell Volume (A^3),Formula Units per Cell,Atoms per Formula Unit,Total Atoms Per Unit Cell,Average Atomic Volume,Author of Unit Cell,Unit Cell DOI,ICSD ID,Electronic over Total Thermal Conductivity,Space Group,Number of Symmetry Elements
,280,1000,0.000191756,0.0001,,,0.0001,0.05214960679,0.00005214960679,La1.95Sr0.05CuO4,La2-xSrxCuO4,0.05,LaCuO4,5214.960679,Solid state reaction (O2 atmosphere),polycrystalline,Takagi1992PRL,http://dx.doi.org/10.1103/PhysRevLett.69.2975,"Seebeck extrapolated from Zhou1996PRB, DOI: 10.1103/PhysRevB.54.12488",380.25,4,7,28,13.58035714,Rial,http://dx.doi.org/10.1016/0921-4534(95)00570-6,78632,,64,16
,281,300,0.0000280286,0.0000547234,,,0.0000547234,0.03205280151,0.0001068426717,La1.9Sr0.1CuO4,La2-xSrxCuO4,0.1,LaCuO4,35677.84335,Solid state reaction (O2 atmosphere),polycrystalline,Takagi1992PRL,http://dx.doi.org/10.1103/PhysRevLett.69.2975,"Seebeck from Zhou1996PRB, DOI: 10.1103/PhysRevB.54.12488",378.4,4,7,28,13.51428571,Radaelli,http://dx.doi.org/10.1103/PhysRevB.49.4163,78240,,64,16
,282,400,0.0000381517,0.00005,,,0.00005,0.0262111518,0.00006552787949,La1.9Sr0.1CuO4,La2-xSrxCuO4,0.1,LaCuO4,26211.1518,Solid state reaction (O2 atmosphere),polycrystalline,Takagi1992PRL,http://dx.doi.org/10.1103/PhysRevLett.69.2975,"Seebeck estimated Zhou1996PRB, DOI: 10.1103/PhysRevB.54.12488",378.4,4,7,28,13.51428571,Radaelli,http://dx.doi.org/10.1103/PhysRevB.49.4163,78240,,64,16
,283,700,0.0000608328,0.00004,,,0.00004,0.01841112032,0.00002630160045,La1.9Sr0.1CuO4,La2-xSrxCuO4,0.1,LaCuO4,16438.50028,Solid state reaction (O2 atmosphere),polycrystalline,Takagi1992PRL,http://dx.doi.org/10.1103/PhysRevLett.69.2975,"Seebeck estimated Zhou1996PRB, DOI: 10.1103/PhysRevB.54.12488",378.4,4,7,28,13.51428571,Radaelli,http://dx.doi.org/10.1103/PhysRevB.49.4163,78240,,64,16
,284,1000,0.0000818462,0.00003,,,0.00003,0.0109962344,0.0000109962344,La1.9Sr0.1CuO4,La2-xSrxCuO4,0.1,LaCuO4,12218.03822,Solid state reaction (O2 atmosphere),polycrystalline,Takagi1992PRL,http://dx.doi.org/10.1103/PhysRevLett.69.2975,"Seebeck estimated Zhou1996PRB, DOI: 10.1103/PhysRevB.54.12488",378.4,4,7,28,13.51428571,Radaelli,http://dx.doi.org/10.1103/PhysRevB.49.4163,78240,,64,16
,285,300,0.0000112686,0.000025,,,0.000025,0.01663915659,0.00005546385531,La1.85Sr0.15CuO4,La2-xSrxCuO4,0.15,LaCuO4,88742.1685,Solid state reaction (O2 atmosphere),polycrystalline,Takagi1992PRL,http://dx.doi.org/10.1103/PhysRevLett.69.2975,"Seebeck from Zhou1996PRB, DOI: 10.1103/PhysRevB.54.12488",190.07,2,7,14,13.57642857,Wang,http://dx.doi.org/10.1021/ic00255a002,62608,,139,32
,286,400,0.0000148762,0.00002,,,0.00002,0.01075543486,0.00002688858714,La1.85Sr0.15CuO4,La2-xSrxCuO4,0.15,LaCuO4,67221.46785,Solid state reaction (O2 atmosphere),polycrystalline,Takagi1992PRL,http://dx.doi.org/10.1103/PhysRevLett.69.2975,"Seebeck extrapolated from Zhou1996PRB, DOI: 10.1103/PhysRevB.54.12488",190.07,2,7,14,13.57642857,Wang,http://dx.doi.org/10.1021/ic00255a002,62608,,139,32
,287,700,0.0000253868,0.0000022,,,0.0000022,0.0001334551814,0.0000001906502592,La1.85Sr0.15CuO4,La2-xSrxCuO4,0.15,LaCuO4,39390.54942,Solid state reaction (O2 atmosphere),polycrystalline,Takagi1992PRL,http://dx.doi.org/10.1103/PhysRevLett.69.2975,"Seebeck extrapolated from Zhou1996PRB, DOI: 10.1103/PhysRevB.54.12488",190.07,2,7,14,13.57642857,Wang,http://dx.doi.org/10.1021/ic00255a002,62608,,139,32
,288,1000,0.0000376365,0.000001,,,0.000001,0.00002656995204,0.00000002656995204,La1.85Sr0.15CuO4,La2-xSrxCuO4,0.15,LaCuO4,26569.95204,Solid state reaction (O2 atmosphere),polycrystalline,Takagi1992PRL,http://dx.doi.org/10.1103/PhysRevLett.69.2975,"Seebeck extrapolated from Zhou1996PRB, DOI: 10.1103/PhysRevB.54.12488",190.07,2,7,14,13.57642857,Wang,http://dx.doi.org/10.1021/ic00255a002,62608,,139,32
,289,300,0.0000047135,0.0000005,,,0.0000005,0.00001591174287,0.00000005303914289,La1.725Sr0.28CuO4,La2-xSrxCuO4,0.28,LaCuO4,212156.5715,Solid state reaction (O2 atmosphere),polycrystalline,Takagi1992PRL,http://dx.doi.org/10.1103/PhysRevLett.69.2975,"Seebeck from Zhou1996PRB, DOI: 10.1103/PhysRevB.54.12488",190.07,2,7,14,13.57642857,Wang,http://dx.doi.org/10.1021/ic00255a002,62608,,139,32
,290,400,0.00000676029,0.0000001,,,0.0000001,0.0000005916905932,0.000000001479226483,La1.725Sr0.28CuO4,La2-xSrxCuO4,0.28,LaCuO4,147922.6483,Solid state reaction (O2 atmosphere),polycrystalline,Takagi1992PRL,http://dx.doi.org/10.1103/PhysRevLett.69.2975,"Seebeck estimated Zhou1996PRB, DOI: 10.1103/PhysRevB.54.12488",190.07,2,7,14,13.57642857,Wang,http://dx.doi.org/10.1021/ic00255a002,62608,,139,32
,291,700,0.0000136142,0.0000001,,,0.0000001,0.0000005141690294,0.0000000007345271849,La1.725Sr0.28CuO4,La2-xSrxCuO4,0.28,LaCuO4,73452.71849,Solid state reaction (O2 atmosphere),polycrystalline,Takagi1992PRL,http://dx.doi.org/10.1103/PhysRevLett.69.2975,"Seebeck estimated Zhou1996PRB, DOI: 10.1103/PhysRevB.54.12488",190.07,2,7,14,13.57642857,Wang,http://dx.doi.org/10.1021/ic00255a002,62608,,139,32
,292,1000,0.0000222519,0.0000001,,,0.0000001,0.0000004493998265,0.0000000004493998265,La1.725Sr0.28CuO4,La2-xSrxCuO4,0.28,LaCuO4,44939.98265,Solid state reaction (O2 atmosphere),polycrystalline,Takagi1992PRL,http://dx.doi.org/10.1103/PhysRevLett.69.2975,"Seebeck estimated Zhou1996PRB, DOI: 10.1103/PhysRevB.54.12488",190.07,2,7,14,13.57642857,Wang,http://dx.doi.org/10.1021/ic00255a002,62608,,139,32
,293,300,0.00014,0.000215,,,0.000215,0.09905357143,0.0003301785714,TlCr5Se8,TlCr5Se8,,ACoO2,7142.857143,Solid state reaction,polycrystalline,Nunna2012EMRS,Personal communication,"Takahashi2012EMRS,  takahashi_5110@yahoo.co.jp",581.29,2,14,28,20.76035714,Klepp,http://dx.doi.org/10.1016/0022-4596(83)90096-8,37123,,12,8
,294,400,0.00016,0.00024,,,0.00024,0.144,0.00036,TlCr5Se8,TlCr5Se8,,ACoO2,6250,Solid state reaction,polycrystalline,Nunna2012EMRS,Personal communication,http://www.emrs-strasbourg.com/index.php?option=com_abstract&task=view&id=159&year=2012&Itemid=&id_season=6&PHPSESSID=4a1e1f1d31b21a6fd9719daeacb1dc20,581.29,2,14,28,20.76035714,Klepp,http://dx.doi.org/10.1016/0022-4596(83)90096-8,37123,,12,8
,295,700,0.0002,0.000295,,,0.000295,0.3045875,0.000435125,TlCr5Se8,TlCr5Se8,,ACoO2,5000,Solid state reaction,polycrystalline,Nunna2012EMRS,Personal communication,http://www.emrs-strasbourg.com/index.php?option=com_abstract&task=view&id=159&year=2012&Itemid=&id_season=6&PHPSESSID=4a1e1f1d31b21a6fd9719daeacb1dc20,581.29,2,14,28,20.76035714,Klepp,http://dx.doi.org/10.1016/0022-4596(83)90096-8,37123,,12,8
# outlier in rho,296,300,18.8612,-0.000175031,,,0.000175031,0.0000004872836982,0.000000001624278994,LiMn2O4,LiMn2O4,0,LiMn2O4,0.05301889593,Solid state reaction (oxalates),polycrystalline,Sparks2012JMC,http://dx.doi.org/10.1039/c2jm16297k,Extrapolated from 370 K,555.64,8,7,56,9.922142857,Berg,http://dx.doi.org/10.1016/S0167-2738(99)00235-0,89459,,227,192
,297,400,0.853104,-0.000147038,,,0.000147038,0.00001013718067,0.00000002534295167,LiMn2O4,LiMn2O4,0,LiMn2O4,1.172190026,Solid state reaction (oxalates),polycrystalline,Sparks2012JMC,http://dx.doi.org/10.1039/c2jm16297k,,555.64,8,7,56,9.922142857,Berg,http://dx.doi.org/10.1016/S0167-2738(99)00235-0,89459,,227,192
,298,700,0.0169095,-0.00010068,,,0.00010068,0.0004196175925,0.0000005994537035,LiMn2O4,LiMn2O4,0,LiMn2O4,59.13835418,Solid state reaction (oxalates),polycrystalline,Sparks2012JMC,http://dx.doi.org/10.1039/c2jm16297k,,555.64,8,7,56,9.922142857,Berg,http://dx.doi.org/10.1016/S0167-2738(99)00235-0,89459,,227,192
,299,1000,0.00359618,-0.0000848113,,,0.0000848113,0.0020001659,0.0000020001659,LiMn2O4,LiMn2O4,0,LiMn2O4,278.072844,Solid state reaction (oxalates),polycrystalline,Sparks2012JMC,http://dx.doi.org/10.1039/c2jm16297k,,555.64,8,7,56,9.922142857,Berg,http://dx.doi.org/10.1016/S0167-2738(99)00235-0,89459,,227,192
,300,300,0.00107079,0.000277076,,,0.000277076,0.02150872994,0.00007169576647,CuFe0.9Cr0.1O2,CuFe1-xCrxO2,0.1,CuCrO2,933.8899317,Solid state reaction,polycrystalline,Guilmeau2009JEM,http://dx.doi.org/10.1007/s11664-009-0815-2,,136.95,3,4,12,11.4125,Prewitt,http://dx.doi.org/10.1021/ic50098a011,31918,,166,12
,301,400,0.000699656,0.000299003,,,0.000299003,0.05111242897,0.0001277810724,CuFe0.9Cr0.1O2,CuFe1-xCrxO2,0.1,CuCrO2,1429.273815,Solid state reaction,polycrystalline,Guilmeau2009JEM,http://dx.doi.org/10.1007/s11664-009-0815-2,,136.95,3,4,12,11.4125,Prewitt,http://dx.doi.org/10.1021/ic50098a011,31918,,166,12
,302,700,0.000557025,0.000321429,,,0.000321429,0.1298355037,0.0001854792909,CuFe0.9Cr0.1O2,CuFe1-xCrxO2,0.1,CuCrO2,1795.25156,Solid state reaction,polycrystalline,Guilmeau2009JEM,http://dx.doi.org/10.1007/s11664-009-0815-2,,136.95,3,4,12,11.4125,Prewitt,http://dx.doi.org/10.1021/ic50098a011,31918,,166,12
,303,1000,0.000532197,0.000324917,,,0.000324917,0.1983683803,0.0001983683803,CuFe0.9Cr0.1O2,CuFe1-xCrxO2,0.1,CuCrO2,1879.003452,Solid state reaction,polycrystalline,Guilmeau2009JEM,http://dx.doi.org/10.1007/s11664-009-0815-2,Extrapolated from 830 K,136.95,3,4,12,11.4125,Prewitt,http://dx.doi.org/10.1021/ic50098a011,31918,,166,12
,304,300,0.0000179525,0.0000976744,,,0.0000976744,0.1594255131,0.0005314183771,CuRh0.9Mg0.1O2,CuRh1-xMgxO2,0.1,CuCrO2,55702.54839,Solid state reaction,polycrystalline,Guilmeau2009JEM,http://dx.doi.org/10.1007/s11664-009-0815-2,,140.56,3,4,12,11.71333333,Bertaut,http://dx.doi.org/10.1016/0022-3697(61)90220-7,29214,,166,12
,305,400,0.00001937,0.000115116,,,0.000115116,0.2736539691,0.0006841349229,CuRh0.9Mg0.1O2,CuRh1-xMgxO2,0.1,CuCrO2,51626.22612,Solid state reaction,polycrystalline,Guilmeau2009JEM,http://dx.doi.org/10.1007/s11664-009-0815-2,,140.56,3,4,12,11.71333333,Bertaut,http://dx.doi.org/10.1016/0022-3697(61)90220-7,29214,,166,12
,306,700,0.0000319853,0.000145515,,,0.000145515,0.4634075859,0.000662010837,CuRh0.9Mg0.1O2,CuRh1-xMgxO2,0.1,CuCrO2,31264.36207,Solid state reaction,polycrystalline,Guilmeau2009JEM,http://dx.doi.org/10.1007/s11664-009-0815-2,,140.56,3,4,12,11.71333333,Bertaut,http://dx.doi.org/10.1016/0022-3697(61)90220-7,29214,,166,12
,307,1000,0.0000407907,0.00016794,,,0.00016794,0.6914282814,0.0006914282814,CuRh0.9Mg0.1O2,CuRh1-xMgxO2,0.1,CuCrO2,24515.39199,Solid state reaction,polycrystalline,Guilmeau2009JEM,http://dx.doi.org/10.1007/s11664-009-0815-2,,140.56,3,4,12,11.71333333,Bertaut,http://dx.doi.org/10.1016/0022-3697(61)90220-7,29214,,166,12
,308,300,0.00196666,0.0003,,,0.0003,0.0137288601,0.00004576286699,CuCr0.98Mg0.02O2,CuCr1-xMgxO2,0.02,CuCrO2,508.4762999,Solid state reaction,polycrystalline,Guilmeau2009JEM,http://dx.doi.org/10.1007/s11664-009-0815-2,,131.12,3,4,12,10.92666667,Ono,http://dx.doi.org/10.1143/JJAP.46.1071,157802,,166,12
,309,400,0.00119099,0.000321429,,,0.000321429,0.03469940202,0.00008674850506,CuCr0.98Mg0.02O2,CuCr1-xMgxO2,0.02,CuCrO2,839.6376124,Solid state reaction,polycrystalline,Guilmeau2009JEM,http://dx.doi.org/10.1007/s11664-009-0815-2,,131.12,3,4,12,10.92666667,Ono,http://dx.doi.org/10.1143/JJAP.46.1071,157802,,166,12
,310,700,0.000865553,0.000351827,,,0.000351827,0.1001065984,0.0001430094263,CuCr0.98Mg0.02O2,CuCr1-xMgxO2,0.02,CuCrO2,1155.330754,Solid state reaction,polycrystalline,Guilmeau2009JEM,http://dx.doi.org/10.1007/s11664-009-0815-2,,131.12,3,4,12,10.92666667,Ono,http://dx.doi.org/10.1143/JJAP.46.1071,157802,,166,12
,311,1000,0.00072125,0.000354817,,,0.000354817,0.17455127,0.00017455127,CuCr0.98Mg0.02O2,CuCr1-xMgxO2,0.02,CuCrO2,1386.481802,Solid state reaction,polycrystalline,Guilmeau2009JEM,http://dx.doi.org/10.1007/s11664-009-0815-2,Extrapolated from 900 K,131.12,3,4,12,10.92666667,Ono,http://dx.doi.org/10.1143/JJAP.46.1071,157802,,166,12
# outlier in rho,312,300,14.02658318,0.0000979094,,,0.0000979094,0.0000002050303446,0.0000000006834344819,WO3,(WO3)1-x(Co2O3)x,0,WO3,0.0712932,Solid state reaction,polycrystalline,Dong2012JMSME,http://dx.doi.org/10.1007/s10854-011-0574-8,"Extrapolated from 370 K, 2-phase",422.94,8,4,32,13.216875,Woodward,http://dx.doi.org/10.1016/0022-3697(95)00063-1,80053,,2,2
# outlier in rho,313,400,8.098083993,0.000107578,,,0.000107578,0.0000005716426796,0.000000001429106699,WO3,(WO3)1-x(Co2O3)x,0,WO3,0.123486,Solid state reaction,polycrystalline,Dong2012JMSME,http://dx.doi.org/10.1007/s10854-011-0574-8,2-phase,422.94,8,4,32,13.216875,Woodward,http://dx.doi.org/10.1016/0022-3697(95)00063-1,80053,,2,2
,314,700,1.084818721,0.000124826,,,0.000124826,0.00001005428002,0.00000001436325717,WO3,(WO3)1-x(Co2O3)x,0,WO3,0.921813,Solid state reaction,polycrystalline,Dong2012JMSME,http://dx.doi.org/10.1007/s10854-011-0574-8,2-phase,422.94,8,4,32,13.216875,Woodward,http://dx.doi.org/10.1016/0022-3697(95)00063-1,80053,,2,2
,315,1000,0.6485589021,0.000160801,,,0.000160801,0.00003986833195,0.00000003986833195,WO3,(WO3)1-x(Co2O3)x,0,WO3,1.54188,Solid state reaction,polycrystalline,Dong2012JMSME,http://dx.doi.org/10.1007/s10854-011-0574-8,2-phase,422.94,8,4,32,13.216875,Woodward,http://dx.doi.org/10.1016/0022-3697(95)00063-1,80053,,2,2
# outlier in rho,316,300,12.46791071,0.0000925958,,,0.0000925958,0.0000002063051871,0.0000000006876839571,W0.99O2.97Co0.02O0.03,(WO3)1-x(Co2O3)x,0.01,WO3,0.0802059,Solid state reaction,polycrystalline,Dong2012JMSME,http://dx.doi.org/10.1007/s10854-011-0574-8,"Extrapolated from 370 K, 2-phase",422.94,8,4,32,13.216875,Woodward,http://dx.doi.org/10.1016/0022-3697(95)00063-1,80053,,2,2
# outlier in rho,317,400,7.076990581,0.0000970383,,,0.0000970383,0.0000005322280175,0.000000001330570044,W0.99O2.97Co0.02O0.03,(WO3)1-x(Co2O3)x,0.01,WO3,0.141303,Solid state reaction,polycrystalline,Dong2012JMSME,http://dx.doi.org/10.1007/s10854-011-0574-8,2-phase,422.94,8,4,32,13.216875,Woodward,http://dx.doi.org/10.1016/0022-3697(95)00063-1,80053,,2,2
,318,700,0.8602520539,0.000113502,,,0.000113502,0.00001048284949,0.00000001497549927,W0.99O2.97Co0.02O0.03,(WO3)1-x(Co2O3)x,0.01,WO3,1.16245,Solid state reaction,polycrystalline,Dong2012JMSME,http://dx.doi.org/10.1007/s10854-011-0574-8,2-phase,422.94,8,4,32,13.216875,Woodward,http://dx.doi.org/10.1016/0022-3697(95)00063-1,80053,,2,2
,319,1000,0.3642867811,0.000113937,,,0.000113937,0.00003563577006,0.00000003563577006,W0.99O2.97Co0.02O0.03,(WO3)1-x(Co2O3)x,0.01,WO3,2.74509,Solid state reaction,polycrystalline,Dong2012JMSME,http://dx.doi.org/10.1007/s10854-011-0574-8,2-phase,422.94,8,4,32,13.216875,Woodward,http://dx.doi.org/10.1016/0022-3697(95)00063-1,80053,,2,2
,320,300,1.14491013,0.000103223,,,0.000103223,0.000002791918976,0.000000009306396587,W0.95O2.95Co0.1O0.15,(WO3)1-x(Co2O3)x,0.05,WO3,0.873431,Solid state reaction,polycrystalline,Dong2012JMSME,http://dx.doi.org/10.1007/s10854-011-0574-8,"Extrapolated from 370 K, 2-phase",422.94,8,4,32,13.216875,Woodward,http://dx.doi.org/10.1016/0022-3697(95)00063-1,80053,,2,2
,321,400,0.9941840235,0.00010601,,,0.00010601,0.000004521545241,0.0000000113038631,W0.95O2.95Co0.1O0.15,(WO3)1-x(Co2O3)x,0.05,WO3,1.00585,Solid state reaction,polycrystalline,Dong2012JMSME,http://dx.doi.org/10.1007/s10854-011-0574-8,2-phase,422.94,8,4,32,13.216875,Woodward,http://dx.doi.org/10.1016/0022-3697(95)00063-1,80053,,2,2
,322,700,0.2023705688,0.000120122,,,0.000120122,0.00004991094543,0.00000007130135062,W0.95O2.95Co0.1O0.15,(WO3)1-x(Co2O3)x,0.05,WO3,4.94143,Solid state reaction,polycrystalline,Dong2012JMSME,http://dx.doi.org/10.1007/s10854-011-0574-8,2-phase,422.94,8,4,32,13.216875,Woodward,http://dx.doi.org/10.1016/0022-3697(95)00063-1,80053,,2,2
,323,1000,0.1589233894,0.00012561,,,0.00012561,0.00009927973573,0.00000009927973573,W0.95O2.95Co0.1O0.15,(WO3)1-x(Co2O3)x,0.05,WO3,6.29234,Solid state reaction,polycrystalline,Dong2012JMSME,http://dx.doi.org/10.1007/s10854-011-0574-8,2-phase,422.94,8,4,32,13.216875,Woodward,http://dx.doi.org/10.1016/0022-3697(95)00063-1,80053,,2,2
# outlier in rho,324,300,5.610255547,0.000103833,,,0.000103833,0.0000005765134118,0.000000001921711373,W0.9O2.7Co0.2O0.3,(WO3)1-x(Co2O3)x,0.1,WO3,0.178245,Solid state reaction,polycrystalline,Dong2012JMSME,http://dx.doi.org/10.1007/s10854-011-0574-8,"Extrapolated from 370 K, 2-phase",422.94,8,4,32,13.216875,Woodward,http://dx.doi.org/10.1016/0022-3697(95)00063-1,80053,,2,2
,325,400,1.757080154,0.000105575,,,0.000105575,0.000002537409713,0.000000006343524282,W0.9O2.7Co0.2O0.3,(WO3)1-x(Co2O3)x,0.1,WO3,0.569126,Solid state reaction,polycrystalline,Dong2012JMSME,http://dx.doi.org/10.1007/s10854-011-0574-8,2-phase,422.94,8,4,32,13.216875,Woodward,http://dx.doi.org/10.1016/0022-3697(95)00063-1,80053,,2,2
,326,700,0.5208251954,0.000121603,,,0.000121603,0.00001987442777,0.00000002839203967,W0.9O2.7Co0.2O0.3,(WO3)1-x(Co2O3)x,0.1,WO3,1.92003,Solid state reaction,polycrystalline,Dong2012JMSME,http://dx.doi.org/10.1007/s10854-011-0574-8,2-phase,422.94,8,4,32,13.216875,Woodward,http://dx.doi.org/10.1016/0022-3697(95)00063-1,80053,,2,2
,327,1000,0.3573279019,0.000124216,,,0.000124216,0.0000431805481,0.0000000431805481,W0.9O2.7Co0.2O0.3,(WO3)1-x(Co2O3)x,0.1,WO3,2.79855,Solid state reaction,polycrystalline,Dong2012JMSME,http://dx.doi.org/10.1007/s10854-011-0574-8,2-phase,422.94,8,4,32,13.216875,Woodward,http://dx.doi.org/10.1016/0022-3697(95)00063-1,80053,,2,2
,328,300,0.00302535,-0.00065091,3.56184,0.01179541188,0.00065091,0.04201336983,0.0001400445661,CaMnO3,CaYbxMn1-xO3,0,CaMnO3,330.5402681,Solid state reaction,polycrystalline,Flahaut2006ICT,http://dx.doi.org/10.1109/ICT.2006.331291,,206.97,4,5,20,10.3485,Poeppelmeier,http://dx.doi.org/10.1016/0022-4596(82)90292-4,35218,0.0006792991157,62,8
,329,400,0.0024169,-0.000587185,3.06714,0.0186044834,0.000587185,0.05706255521,0.000142656388,CaMnO3,CaYbxMn1-xO3,0,CaMnO3,413.7531549,Solid state reaction,polycrystalline,Flahaut2006ICT,http://dx.doi.org/10.1109/ICT.2006.331291,,206.97,4,5,20,10.3485,Poeppelmeier,http://dx.doi.org/10.1016/0022-4596(82)90292-4,35218,0.001316611172,62,8
,330,700,0.00103099,-0.000362325,2.15813,0.04130119209,0.000362325,0.08913334168,0.0001273333453,CaMnO3,CaYbxMn1-xO3,0,CaMnO3,969.9415125,Solid state reaction,polycrystalline,Flahaut2006ICT,http://dx.doi.org/10.1109/ICT.2006.331291,,206.97,4,5,20,10.3485,Poeppelmeier,http://dx.doi.org/10.1016/0022-4596(82)90292-4,35218,0.007676368446,62,8
,331,1000,0.0008435295328,-0.000282213,2.06537,0.0457147,0.000282213,0.09441776994,0.00009441776994,CaMnO3,CaYbxMn1-xO3,0,CaMnO3,1185.494948,Solid state reaction,polycrystalline,Flahaut2006ICT,http://dx.doi.org/10.1109/ICT.2006.331291,"Resistivity calculated from reported Seebeck, thermal conductivity, and zT",206.97,4,5,20,10.3485,Poeppelmeier,http://dx.doi.org/10.1016/0022-4596(82)90292-4,35218,0.01400527593,62,8
,332,300,0.0000919163,-0.000109244,1.49028,0.02613701787,0.000109244,0.03895147499,0.00012983825,CaYb0.05Mn0.95O3,CaYbxMn1-xO3,0.05,CaMnO3,10879.46316,Solid state reaction,polycrystalline,Flahaut2006ICT,http://dx.doi.org/10.1109/ICT.2006.331291,,206.97,4,5,20,10.3485,Poeppelmeier,http://dx.doi.org/10.1016/0022-4596(82)90292-4,35218,0.05343805886,62,8
,333,400,0.000106095,-0.00012472,1.47173,0.03984823921,0.00012472,0.0586458491,0.0001466146227,CaYb0.05Mn0.95O3,CaYbxMn1-xO3,0.05,CaMnO3,9425.514869,Solid state reaction,polycrystalline,Flahaut2006ICT,http://dx.doi.org/10.1109/ICT.2006.331291,,206.97,4,5,20,10.3485,Poeppelmeier,http://dx.doi.org/10.1016/0022-4596(82)90292-4,35218,0.06250672686,62,8
,334,700,0.000155708,-0.000168417,1.60159,0.07961733182,0.000168417,0.1275143225,0.0001821633178,CaYb0.05Mn0.95O3,CaYbxMn1-xO3,0.05,CaMnO3,6422.277597,Solid state reaction,polycrystalline,Flahaut2006ICT,http://dx.doi.org/10.1109/ICT.2006.331291,,206.97,4,5,20,10.3485,Poeppelmeier,http://dx.doi.org/10.1016/0022-4596(82)90292-4,35218,0.06848975165,62,8