# Outliers,Original Index,Temperature (K),Electrical Resistivity (Ohm m),Seebeck Coefficient (V/K),Thermal Conductivity (W/(m K)),Figure of Merit,Thermopower (V/K),Thermal Conductivity x Figure of Merit (W/m K),Power Factor (W/(K^2 m)),Formula,Series,Series Index,Family,Electrical Conductivity (S/m),Preparative Route,Final Form,Authors,DOI,Comments,Cell Volume (A^3),Formula Units per Cell,Atoms per Formula Unit,Total Atoms Per Unit Cell,Average Atomic Volume,Author of Unit Cell,Unit Cell DOI,ICSD ID,Electronic over Total Thermal Conductivity,Space Group,Number of Symmetry Elements
,390,700,0.000009495109992,0.00002504,,,0.00002504,0.04622391108,0.00006603415869,La0.95Sr0.05CoO3,La1-xSrxCoO3,0.05,LaCoO3,105317.3687,solid state reaction,polycrystalline,Iwasaki2008JSSC,http://dx.doi.org/10.1016/j.jssc.2008.08.078,,222.95,4,5,20,11.1475,Wang,http://dx.doi.org/10.1021/ic902072v,247230,,15,8
,391,1000,0.000008317637711,0.0000148,,,0.0000148,0.02633440018,0.00002633440018,La0.95Sr0.05CoO3,La1-xSrxCoO3,0.05,LaCoO3,120226.4435,solid state reaction,polycrystalline,Iwasaki2008JSSC,http://dx.doi.org/10.1016/j.jssc.2008.08.078,,222.95,4,5,20,11.1475,Wang,http://dx.doi.org/10.1021/ic902072v,247230,,15,8
,392,300,0.000004677351413,0.00002132,3.69579,0.007888389919,0.00002132,0.02915383258,0.00009717944193,La0.8Sr0.2CoO3,La1-xSrxCoO3,0.2,LaCoO3,213796.209,solid state reaction,polycrystalline,Iwasaki2008JSSC,http://dx.doi.org/10.1016/j.jssc.2008.08.078,,224.2,4,5,20,11.21,Wang,http://dx.doi.org/10.1021/ic902072v,247232,0.4234516164,15,8
,393,400,0.000004466835922,0.0000176,,,0.0000176,0.0277386504,0.00006934662599,La0.8Sr0.2CoO3,La1-xSrxCoO3,0.2,LaCoO3,223872.1139,solid state reaction,polycrystalline,Iwasaki2008JSSC,http://dx.doi.org/10.1016/j.jssc.2008.08.078,,224.2,4,5,20,11.21,Wang,http://dx.doi.org/10.1021/ic902072v,247232,,15,8
,394,700,0.000004988844875,0.00001017,,,0.00001017,0.01451242358,0.00002073203369,La0.8Sr0.2CoO3,La1-xSrxCoO3,0.2,LaCoO3,200447.2027,solid state reaction,polycrystalline,Iwasaki2008JSSC,http://dx.doi.org/10.1016/j.jssc.2008.08.078,,224.2,4,5,20,11.21,Wang,http://dx.doi.org/10.1021/ic902072v,247232,,15,8
,395,1000,0.000005970352866,0.00000552,,,0.00000552,0.005103617941,0.000005103617941,La0.8Sr0.2CoO3,La1-xSrxCoO3,0.2,LaCoO3,167494.2876,solid state reaction,polycrystalline,Iwasaki2008JSSC,http://dx.doi.org/10.1016/j.jssc.2008.08.078,,224.2,4,5,20,11.21,Wang,http://dx.doi.org/10.1021/ic902072v,247232,,15,8
,396,300,0.0000203961,0.0000564516,0.84,0.05580168937,0.0000564516,0.04687341907,0.0001562447302,Yb14MnSb11,Yb14MnSb11,,Yb14MnSb11,49028.98103,"flux (Sn), Ar",single crystal,Brown2006CM,http://dx.doi.org/10.1021/cm060261t,,6058.93,8,26,208,29.12947115,Chan,http://dx.doi.org/10.1021/cm980358i,85638,0.427252549,142,32
,397,400,0.0000232311,0.0000687334,0.844,0.09637922403,0.0000687334,0.08134406508,0.0002033601627,Yb14MnSb11,Yb14MnSb11,,Yb14MnSb11,43045.74471,"flux (Sn), Ar",single crystal,Brown2006CM,http://dx.doi.org/10.1021/cm060261t,,6058.93,8,26,208,29.12947115,Chan,http://dx.doi.org/10.1021/cm980358i,85638,0.4977801758,142,32
,398,700,0.000034632,0.000117242,0.816,0.3404840288,0.000117242,0.2778349675,0.0003969070964,Yb14MnSb11,Yb14MnSb11,,Yb14MnSb11,28875.02888,"flux (Sn), Ar",single crystal,Brown2006CM,http://dx.doi.org/10.1021/cm060261t,,6058.93,8,26,208,29.12947115,Chan,http://dx.doi.org/10.1021/cm980358i,85638,0.6043939867,142,32
,399,1000,0.0000457917,0.000164143,0.715,0.8229092132,0.000164143,0.5883800874,0.0005883800874,Yb14MnSb11,Yb14MnSb11,,Yb14MnSb11,21838.01868,"flux (Sn), Ar",single crystal,Brown2006CM,http://dx.doi.org/10.1021/cm060261t,,6058.93,8,26,208,29.12947115,Chan,http://dx.doi.org/10.1021/cm980358i,85638,0.7452414766,142,32
,400,300,0.0000210707,0.000110866,1.01,0.1732677255,0.000110866,0.1750004028,0.0005833346759,Zn4Sb3,Zn4Sb3,,Zn4Sb3,47459.26808,"melted, inert",polycrystalline,Caillat1997JPCS,http://dx.doi.org/10.1016/S0022-3697(96)00228-4,,1610.64,9,7,63,25.56571429,Mayer,http://dx.doi.org/10.1016/0022-5088(78)90109-1,52403,0.3439622202,167,12
,401,400,0.0000258969,0.000146015,0.6638,0.4961007791,0.000146015,0.3293116972,0.0008232792429,Zn4Sb3,Zn4Sb3,,Zn4Sb3,38614.66044,"melted, inert",polycrystalline,Caillat1997JPCS,http://dx.doi.org/10.1016/S0022-3697(96)00228-4,,1610.64,9,7,63,25.56571429,Mayer,http://dx.doi.org/10.1016/0022-5088(78)90109-1,52403,0.5677599969,167,12
,402,700,0.0000332511,0.000205872,0.6933,1.286961011,0.000205872,0.892250069,0.001274642956,Zn4Sb3,Zn4Sb3,,Zn4Sb3,30074.19303,"melted, inert",polycrystalline,Caillat1997JPCS,http://dx.doi.org/10.1016/S0022-3697(96)00228-4,,1610.64,9,7,63,25.56571429,Mayer,http://dx.doi.org/10.1016/0022-5088(78)90109-1,52403,0.7409017987,167,12
,403,300,0.0000391,0.000126,,,0.000126,0.1218107417,0.0004060358056,CeFe2Co2Sb12,Ce-Fe4CoSb12,,Fe4CoSb12,25575.44757,combination of melting and powder metallurgy techniques,polycrystalline,Fleurial1996ICT,http://dx.doi.org/10.1109/ICT.1996.553263,,747,2,17,34,21.97058824,Berardan,http://dx.doi.org/10.1016/S0925-8388(02)00968-4,96163,,204,48
,404,400,0.0000385,0.000154,,,0.000154,0.2464,0.000616,CeFe2Co2Sb12,Ce-Fe4CoSb12,,Fe4CoSb12,25974.02597,combination of melting and powder metallurgy techniques,polycrystalline,Fleurial1996ICT,http://dx.doi.org/10.1109/ICT.1996.553263,,747,2,17,34,21.97058824,Berardan,http://dx.doi.org/10.1016/S0925-8388(02)00968-4,96163,,204,48
,405,700,0.0000325,0.000166,,,0.000166,0.5935138462,0.0008478769231,CeFe2Co2Sb12,Ce-Fe4CoSb12,,Fe4CoSb12,30769.23077,combination of melting and powder metallurgy techniques,polycrystalline,Fleurial1996ICT,http://dx.doi.org/10.1109/ICT.1996.553263,,747,2,17,34,21.97058824,Berardan,http://dx.doi.org/10.1016/S0925-8388(02)00968-4,96163,,204,48
,406,300,0.0000103,0.000101,1.91,0.1555583795,0.000101,0.2971165049,0.0009903883495,CeFe3CoSb12,Ce-Fe4CoSb12,,Fe4CoSb12,97087.37864,combination of melting and powder metallurgy techniques,polycrystalline,Fleurial1996ICT,http://dx.doi.org/10.1109/ICT.1996.553263,*kappa extrapolated from 400 K,756.81,2,17,34,22.25911765,Berardan,http://dx.doi.org/10.1016/S0925-8388(02)00968-4,96163,0.3720835663,204,48
,407,400,0.0000112,0.000127,1.98,0.2909271284,0.000127,0.5760357143,0.001440089286,CeFe3CoSb12,Ce-Fe4CoSb12,,Fe4CoSb12,89285.71429,combination of melting and powder metallurgy techniques,polycrystalline,Fleurial1996ICT,http://dx.doi.org/10.1109/ICT.1996.553263,,756.81,2,17,34,22.25911765,Berardan,http://dx.doi.org/10.1016/S0925-8388(02)00968-4,96163,0.4401154401,204,48
,408,700,0.0000129,0.000176,2.07,0.8120136314,0.000176,1.680868217,0.00240124031,CeFe3CoSb12,Ce-Fe4CoSb12,,Fe4CoSb12,77519.37984,combination of melting and powder metallurgy techniques,polycrystalline,Fleurial1996ICT,http://dx.doi.org/10.1109/ICT.1996.553263,,756.81,2,17,34,22.25911765,Berardan,http://dx.doi.org/10.1016/S0925-8388(02)00968-4,96163,0.6396285062,204,48
,409,300,0.00000893,0.0000872,2.4,0.1064367301,0.0000872,0.2554481523,0.000851493841,CeFe3.5Co0.5Sb12,Ce-Fe4CoSb12,,Fe4CoSb12,111982.0829,combination of melting and powder metallurgy techniques,polycrystalline,Fleurial1996ICT,http://dx.doi.org/10.1109/ICT.1996.553263,*kappa extrapolated from 400 K,756.81,2,17,34,22.25911765,Berardan,http://dx.doi.org/10.1016/S0925-8388(02)00968-4,96163,0.3415453527,204,48
,410,400,0.00000971,0.000107,2.38,0.1981670114,0.000107,0.4716374871,0.001179093718,CeFe3.5Co0.5Sb13,Ce-Fe4CoSb12,,Fe4CoSb12,102986.6117,combination of melting and powder metallurgy techniques,polycrystalline,Fleurial1996ICT,http://dx.doi.org/10.1109/ICT.1996.553263,,756.81,2,17,34,22.25911765,Berardan,http://dx.doi.org/10.1016/S0925-8388(02)00968-4,96163,0.4223316515,204,48
,411,700,0.0000107,0.000158,2.49,0.6558870998,0.000158,1.633158879,0.002333084112,CeFe3.5Co0.5Sb14,Ce-Fe4CoSb12,,Fe4CoSb12,93457.94393,combination of melting and powder metallurgy techniques,polycrystalline,Fleurial1996ICT,http://dx.doi.org/10.1109/ICT.1996.553263,,756.81,2,17,34,22.25911765,Berardan,http://dx.doi.org/10.1016/S0925-8388(02)00968-4,96163,0.6410689487,204,48
,412,300,0.00000771,0.0000582,1.55,0.08503175599,0.0000582,0.1317992218,0.0004393307393,CeFe4Sb12,Ce-Fe4CoSb12,,Fe4CoSb12,129701.6861,combination of melting and powder metallurgy techniques,polycrystalline,Fleurial1996ICT,http://dx.doi.org/10.1109/ICT.1996.553263,*kappa extrapolated from 400 K,762.5,2,17,34,22.42647059,Berardan,http://dx.doi.org/10.1016/S0925-8388(02)00968-4,96163,0.6125266725,204,48
,413,400,0.00000836,0.0000757,1.57,0.1746408436,0.0000757,0.2741861244,0.000685465311,CeFe4Sb12,Ce-Fe4CoSb12,,Fe4CoSb12,119617.2249,combination of melting and powder metallurgy techniques,polycrystalline,Fleurial1996ICT,http://dx.doi.org/10.1109/ICT.1996.553263,,762.5,2,17,34,22.42647059,Berardan,http://dx.doi.org/10.1016/S0925-8388(02)00968-4,96163,0.7436077165,204,48
,414,700,0.00000886,0.000127,1.703,0.7482678953,0.000127,1.274300226,0.001820428894,CeFe4Sb12,Ce-Fe4CoSb12,,Fe4CoSb12,112866.8172,combination of melting and powder metallurgy techniques,polycrystalline,Fleurial1996ICT,http://dx.doi.org/10.1109/ICT.1996.553263,,762.5,2,17,34,22.42647059,Berardan,http://dx.doi.org/10.1016/S0925-8388(02)00968-4,96163,1.131981936,204,48
,415,300,0.000445463,0.000279207,0.956,0.05491668702,0.000279207,0.05250035279,0.000175001176,AgCrSe2,AgCrSe2,,AgCrSe2,2244.855353,"solid state reaction, sealed",polycrystalline,Gascoin2011CM,http://dx.doi.org/10.1021/cm200581k,,248.9,3,4,12,20.74166667,van der Lee,"http://dx.doi.org/10.1016/0022-4596(89)90285-5,",68423,0.0171886414,160,6
,416,400,0.000402203,0.000300119,0.3998,0.224057186,0.000300119,0.08957806298,0.0002239451574,AgCrSe2,AgCrSe2,,AgCrSe2,2486.306666,"solid state reaction, sealed",polycrystalline,Gascoin2011CM,http://dx.doi.org/10.1021/cm200581k,,248.9,3,4,12,20.74166667,van der Lee,"http://dx.doi.org/10.1016/0022-4596(89)90285-5,",68423,0.06069623077,160,6
,417,700,0.000328604,0.000306696,0.2056,0.9745818245,0.000306696,0.2003740231,0.0002862486044,AgCrSe2,AgCrSe2,,AgCrSe2,3043.176589,"solid state reaction, sealed",polycrystalline,Gascoin2011CM,http://dx.doi.org/10.1021/cm200581k,*res and seebeck 700K and 1000K values extrapolated from 600K,248.9,3,4,12,20.74166667,van der Lee,"http://dx.doi.org/10.1016/0022-4596(89)90285-5,",68423,0.2528086389,160,6
,418,300,0.000511002,-0.000132097,,,0.000132097,0.01024435369,0.00003414784562,Zn0.9975Al0.0025O,Zn1-xAlxO,0.0025,ZnO,1956.939503,"solid state reaction, vacuum",polycrystalline,Guilmeau2009JEM,http://dx.doi.org/10.1007/s11664-009-0815-2,,47.62,2,2,4,11.905,Abrahams,http://dx.doi.org/10.1107/S0567740869003876,26170,,186,12
,419,400,0.000504715,-0.000135054,,,0.000135054,0.01445535236,0.0000361383809,Zn0.9975Al0.0025O,Zn1-xAlxO,0.0025,ZnO,1981.316188,"solid state reaction, vacuum",polycrystalline,Guilmeau2009JEM,http://dx.doi.org/10.1007/s11664-009-0815-2,,47.62,2,2,4,11.905,Abrahams,http://dx.doi.org/10.1107/S0567740869003876,26170,,186,12
,420,700,0.00041277,-0.000180753,,,0.000180753,0.05540652883,0.00007915218405,Zn0.9975Al0.0025O,Zn1-xAlxO,0.0025,ZnO,2422.656685,"solid state reaction, vacuum",polycrystalline,Guilmeau2009JEM,http://dx.doi.org/10.1007/s11664-009-0815-2,,47.62,2,2,4,11.905,Abrahams,http://dx.doi.org/10.1107/S0567740869003876,26170,,186,12
,421,1000,0.000239096,-0.000218521,,,0.000218521,0.1997165467,0.0001997165467,Zn0.9975Al0.0025O,Zn1-xAlxO,0.0025,ZnO,4182.42045,"solid state reaction, vacuum",polycrystalline,Guilmeau2009JEM,http://dx.doi.org/10.1007/s11664-009-0815-2,,47.62,2,2,4,11.905,Abrahams,http://dx.doi.org/10.1107/S0567740869003876,26170,,186,12
,422,300,0.000151081,-0.00011543,,,0.00011543,0.02645749942,0.00008819166474,Zn0.995Al0.005O,Zn1-xAlxO,0.005,ZnO,6618.965985,"solid state reaction, vacuum",polycrystalline,Guilmeau2009JEM,http://dx.doi.org/10.1007/s11664-009-0815-2,,47.62,2,2,4,11.905,Abrahams,http://dx.doi.org/10.1107/S0567740869003876,26170,,186,12
,423,400,0.000150295,-0.000128468,,,0.000128468,0.04392435417,0.0001098108854,Zn0.995Al0.005O,Zn1-xAlxO,0.005,ZnO,6653.58129,"solid state reaction, vacuum",polycrystalline,Guilmeau2009JEM,http://dx.doi.org/10.1007/s11664-009-0815-2,,47.62,2,2,4,11.905,Abrahams,http://dx.doi.org/10.1107/S0567740869003876,26170,,186,12
,424,700,0.000154224,-0.000162876,,,0.000162876,0.1204093654,0.0001720133791,Zn0.995Al0.005O,Zn1-xAlxO,0.005,ZnO,6484.075112,"solid state reaction, vacuum",polycrystalline,Guilmeau2009JEM,http://dx.doi.org/10.1007/s11664-009-0815-2,,47.62,2,2,4,11.905,Abrahams,http://dx.doi.org/10.1107/S0567740869003876,26170,,186,12
,425,1000,0.00010943,-0.000204677,,,0.000204677,0.3828262298,0.0003828262298,Zn0.995Al0.005O,Zn1-xAlxO,0.005,ZnO,9138.261903,"solid state reaction, vacuum",polycrystalline,Guilmeau2009JEM,http://dx.doi.org/10.1007/s11664-009-0815-2,,47.62,2,2,4,11.905,Abrahams,http://dx.doi.org/10.1107/S0567740869003876,26170,,186,12
,426,300,0.000103143,-0.000113952,,,0.000113952,0.03776812281,0.0001258937427,Zn0.9925Al0.0075O,Zn1-xAlxO,0.0075,ZnO,9695.27743,"solid state reaction, vacuum",polycrystalline,Guilmeau2009JEM,http://dx.doi.org/10.1007/s11664-009-0815-2,,47.62,2,2,4,11.905,Abrahams,http://dx.doi.org/10.1107/S0567740869003876,26170,,186,12
,427,400,0.000103143,-0.000123495,,,0.000123495,0.0591451287,0.0001478628218,Zn0.9925Al0.0075O,Zn1-xAlxO,0.0075,ZnO,9695.27743,"solid state reaction, vacuum",polycrystalline,Guilmeau2009JEM,http://dx.doi.org/10.1007/s11664-009-0815-2,,47.62,2,2,4,11.905,Abrahams,http://dx.doi.org/10.1107/S0567740869003876,26170,,186,12
,428,700,0.000111002,-0.000154543,,,0.000154543,0.1506141979,0.0002151631398,Zn0.9925Al0.0075O,Zn1-xAlxO,0.0075,ZnO,9008.846687,"solid state reaction, vacuum",polycrystalline,Guilmeau2009JEM,http://dx.doi.org/10.1007/s11664-009-0815-2,,47.62,2,2,4,11.905,Abrahams,http://dx.doi.org/10.1107/S0567740869003876,26170,,186,12
,429,1000,0.0000952849,-0.000187876,,,0.000187876,0.3704405564,0.0003704405564,Zn0.9925Al0.0075O,Zn1-xAlxO,0.0075,ZnO,10494.84231,"solid state reaction, vacuum",polycrystalline,Guilmeau2009JEM,http://dx.doi.org/10.1007/s11664-009-0815-2,,47.62,2,2,4,11.905,Abrahams,http://dx.doi.org/10.1107/S0567740869003876,26170,,186,12
,430,300,0.00006778,-0.000110995,,,0.000110995,0.05452887293,0.0001817629098,Zn0.99Al0.01O,Zn1-xAlxO,0.01,ZnO,14753.61464,"solid state reaction, vacuum",polycrystalline,Guilmeau2009JEM,http://dx.doi.org/10.1007/s11664-009-0815-2,,47.62,2,2,4,11.905,Abrahams,http://dx.doi.org/10.1107/S0567740869003876,26170,,186,12
,431,400,0.0000709234,-0.000117177,,,0.000117177,0.0774381901,0.0001935954752,Zn0.99Al0.01O,Zn1-xAlxO,0.01,ZnO,14099.71885,"solid state reaction, vacuum",polycrystalline,Guilmeau2009JEM,http://dx.doi.org/10.1007/s11664-009-0815-2,,47.62,2,2,4,11.905,Abrahams,http://dx.doi.org/10.1107/S0567740869003876,26170,,186,12
,432,700,0.0000795678,-0.000147016,,,0.000147016,0.1901471824,0.000271638832,Zn0.99Al0.01O,Zn1-xAlxO,0.01,ZnO,12567.89807,"solid state reaction, vacuum",polycrystalline,Guilmeau2009JEM,http://dx.doi.org/10.1007/s11664-009-0815-2,,47.62,2,2,4,11.905,Abrahams,http://dx.doi.org/10.1107/S0567740869003876,26170,,186,12
,433,1000,0.0000772102,-0.00017578,,,0.00017578,0.4001881668,0.0004001881668,Zn0.99Al0.01O,Zn1-xAlxO,0.01,ZnO,12951.65665,"solid state reaction, vacuum",polycrystalline,Guilmeau2009JEM,http://dx.doi.org/10.1007/s11664-009-0815-2,,47.62,2,2,4,11.905,Abrahams,http://dx.doi.org/10.1107/S0567740869003876,26170,,186,12
,434,300,0.000213949,-0.000144866,,,0.000144866,0.02942686055,0.00009808953515,Zn0.97Al0.03O,Zn1-xAlxO,0.03,ZnO,4674.011096,"solid state reaction, vacuum",polycrystalline,Guilmeau2009JEM,http://dx.doi.org/10.1007/s11664-009-0815-2,,47.62,2,2,4,11.905,Abrahams,http://dx.doi.org/10.1107/S0567740869003876,26170,,186,12
,435,400,0.000214735,-0.000149839,,,0.000149839,0.04182220117,0.0001045555029,Zn0.97Al0.03O,Zn1-xAlxO,0.03,ZnO,4656.902694,"solid state reaction, vacuum",polycrystalline,Guilmeau2009JEM,http://dx.doi.org/10.1007/s11664-009-0815-2,,47.62,2,2,4,11.905,Abrahams,http://dx.doi.org/10.1107/S0567740869003876,26170,,186,12
,436,700,0.000221022,-0.000177527,,,0.000177527,0.09981397784,0.0001425913969,Zn0.97Al0.03O,Zn1-xAlxO,0.03,ZnO,4524.436481,"solid state reaction, vacuum",polycrystalline,Guilmeau2009JEM,http://dx.doi.org/10.1007/s11664-009-0815-2,,47.62,2,2,4,11.905,Abrahams,http://dx.doi.org/10.1107/S0567740869003876,26170,,186,12
,437,1000,0.000170727,-0.0002075,,,0.0002075,0.2521935605,0.0002521935605,Zn0.97Al0.03O,Zn1-xAlxO,0.03,ZnO,5857.304351,"solid state reaction, vacuum",polycrystalline,Guilmeau2009JEM,http://dx.doi.org/10.1007/s11664-009-0815-2,,47.62,2,2,4,11.905,Abrahams,http://dx.doi.org/10.1107/S0567740869003876,26170,,186,12
,438,300,0.000257653,-0.0000805607,,,0.0000805607,0.007556705784,0.00002518901928,SrMn0.98Mo0.02O3,SrMn1-xMoxO3,0.02,SrMnO3,3881.189041,"solid state reaction, air",polycrystalline,Hebert2007,http://dx.doi.org/10.1016/j.progsolidstchem.2007.01.027,,234.85,4,5,20,11.7425,Daoud-Aladine,http://dx.doi.org/10.1103/PhysRevB.75.104417,157935,,194,24
,439,400,0.000260503,-0.0000738318,,,0.0000738318,0.008370168008,0.00002092542002,SrMn0.98Mo0.02O3,SrMn1-xMoxO3,0.02,SrMnO3,3838.727385,"solid state reaction, air",polycrystalline,Hebert2007,http://dx.doi.org/10.1016/j.progsolidstchem.2007.01.027,,234.85,4,5,20,11.7425,Daoud-Aladine,http://dx.doi.org/10.1103/PhysRevB.75.104417,157935,,194,24
,440,700,0.000335085,-0.0000583178,,,0.0000583178,0.007104693012,0.00001014956145,SrMn0.98Mo0.02O3,SrMn1-xMoxO3,0.02,SrMnO3,2984.317412,"solid state reaction, air",polycrystalline,Hebert2007,http://dx.doi.org/10.1016/j.progsolidstchem.2007.01.027,,234.85,4,5,20,11.7425,Daoud-Aladine,http://dx.doi.org/10.1103/PhysRevB.75.104417,157935,,194,24
,441,1000,0.000355363,-0.0000401869,,,0.0000401869,0.004544611937,0.000004544611937,SrMn0.98Mo0.02O3,SrMn1-xMoxO3,0.02,SrMnO3,2814.02397,"solid state reaction, air",polycrystalline,Hebert2007,http://dx.doi.org/10.1016/j.progsolidstchem.2007.01.027,,234.85,4,5,20,11.7425,Daoud-Aladine,http://dx.doi.org/10.1103/PhysRevB.75.104417,157935,,194,24
,442,300,0.000154019,-0.00011028,,,0.00011028,0.02368865867,0.00007896219557,SrMn0.96Mo0.04O3,SrMn1-xMoxO3,0.04,SrMnO3,6492.705445,"solid state reaction, air",polycrystalline,Hebert2007,http://dx.doi.org/10.1016/j.progsolidstchem.2007.01.027,,234.85,4,5,20,11.7425,Daoud-Aladine,http://dx.doi.org/10.1103/PhysRevB.75.104417,157935,,194,24
,443,400,0.000151768,-0.000105047,,,0.000105047,0.02908352804,0.0000727088201,SrMn0.96Mo0.04O3,SrMn1-xMoxO3,0.04,SrMnO3,6589.00427,"solid state reaction, air",polycrystalline,Hebert2007,http://dx.doi.org/10.1016/j.progsolidstchem.2007.01.027,,234.85,4,5,20,11.7425,Daoud-Aladine,http://dx.doi.org/10.1103/PhysRevB.75.104417,157935,,194,24
,444,700,0.000173875,-0.0000885981,,,0.0000885981,0.03160164674,0.00004514520963,SrMn0.96Mo0.04O3,SrMn1-xMoxO3,0.04,SrMnO3,5751.258088,"solid state reaction, air",polycrystalline,Hebert2007,http://dx.doi.org/10.1016/j.progsolidstchem.2007.01.027,,234.85,4,5,20,11.7425,Daoud-Aladine,http://dx.doi.org/10.1103/PhysRevB.75.104417,157935,,194,24
,445,1000,0.000229475,-0.0000743925,,,0.0000743925,0.02411698031,0.00002411698031,SrMn0.96Mo0.04O3,SrMn1-xMoxO3,0.04,SrMnO3,4357.773178,"solid state reaction, air",polycrystalline,Hebert2007,http://dx.doi.org/10.1016/j.progsolidstchem.2007.01.027,,234.85,4,5,20,11.7425,Daoud-Aladine,http://dx.doi.org/10.1103/PhysRevB.75.104417,157935,,194,24
,446,300,0.00248876,0.0000694361,1.1,0.0005283432841,0.0000694361,0.0005811776125,0.000001937258708,Sm1.7Ca0.3MnO3,Sm1-xCaxMnO3,0.3,CaMnO3,401.8065221,"solid state reaction, air",polycrystalline,Hejtmanek1999PRB,http://dx.doi.org/10.1103/PhysRevB.60.14057,,219.13,4,5,20,10.9565,Woodward,http://dx.doi.org/10.1021/cm980397u,85652,0.002673839765,62,8