# Outliers,Original Index,Temperature (K),Electrical Resistivity (Ohm m),Seebeck Coefficient (V/K),Thermal Conductivity (W/(m K)),Figure of Merit,Thermopower (V/K),Thermal Conductivity x Figure of Merit (W/m K),Power Factor (W/(K^2 m)),Formula,Series,Series Index,Family,Electrical Conductivity (S/m),Preparative Route,Final Form,Authors,DOI,Comments,Cell Volume (A^3),Formula Units per Cell,Atoms per Formula Unit,Total Atoms Per Unit Cell,Average Atomic Volume,Author of Unit Cell,Unit Cell DOI,ICSD ID,Electronic over Total Thermal Conductivity,Space Group,Number of Symmetry Elements
,921,1000,0.000078,0.000297,0.745,1.517965927,0.000297,1.130884615,0.001130884615,Cu2Se,Cu2-xSe,,Cu2Se,,"melted, vacuum",polycrystalline,Liu2012NM,http://dx.doi.org/10.1038/nmat3276,,184.61,4,3,12,15.38416667,Yamamoto,http://dx.doi.org/10.1016/0022-4596(91)90289-T,41140,0.4198933058,225,192
,922,300,0.00000605,0.0000624,1.25,0.1544632066,0.0000624,0.1930790083,0.0006435966942,Cu1.98Se,Cu2-xSe,,Cu2Se,,"melted, vacuum",polycrystalline,Liu2012NM,http://dx.doi.org/10.1038/nmat3277,,184.61,4,3,12,15.38416667,Yamamoto,http://dx.doi.org/10.1016/0022-4596(91)90289-T,41140,0.9679338843,225,192
,923,400,0.00000719,0.0000642,1.73,0.1325424683,0.0000642,0.2292984701,0.0005732461752,Cu1.98Se,Cu2-xSe,,Cu2Se,,"melted, vacuum",polycrystalline,Liu2012NM,http://dx.doi.org/10.1038/nmat3278,,184.61,4,3,12,15.38416667,Yamamoto,http://dx.doi.org/10.1016/0022-4596(91)90289-T,41140,0.7846479134,225,192
,924,700,0.0000151,0.000129,1.45,0.5320255766,0.000129,0.7714370861,0.00110205298,Cu1.98Se,Cu2-xSe,,Cu2Se,,"melted, vacuum",polycrystalline,Liu2012NM,http://dx.doi.org/10.1038/nmat3279,,184.61,4,3,12,15.38416667,Yamamoto,http://dx.doi.org/10.1016/0022-4596(91)90289-T,41140,0.7800867778,225,192
,925,1000,0.0000325,0.0002015,1.015,1.230837438,0.0002015,1.2493,0.0012493,Cu1.98Se,Cu2-xSe,,Cu2Se,,"melted, vacuum",polycrystalline,Liu2012NM,http://dx.doi.org/10.1038/nmat3280,,184.61,4,3,12,15.38416667,Yamamoto,http://dx.doi.org/10.1016/0022-4596(91)90289-T,41140,0.739674119,225,192
,926,300,0.00001971,0.0001255,3.51,0.0682990976,0.0001255,0.2397298326,0.0007990994419,Ca3Co4O9,Ca3Co4O9,,Ca3Co4O9,,"flux (SrCl2), air",single crystal,Shikano2003APL,http://link.aip.org/link/doi/10.1063/1.1562337,,147.11,2,6.77,13.54,10.8648449,Nakatsugawa,http://dx.doi.org/10.1143/JJAP.46.3004,160556,0.1058077162,12,8
,927,400,0.00002172,0.000152,3.444,0.123544724,0.000152,0.4254880295,0.001063720074,Ca3Co4O9,Ca3Co4O9,,Ca3Co4O9,,"flux (SrCl2), air",single crystal,Shikano2003APL,http://link.aip.org/link/doi/10.1063/1.1562337,,147.11,2,6.77,13.54,10.8648449,Nakatsugawa,http://dx.doi.org/10.1143/JJAP.46.3004,160556,0.1304748643,12,8
,928,700,0.00002313,0.000197,3.15,0.3728587212,0.000197,1.174504972,0.001677864246,Ca3Co4O9,Ca3Co4O9,,Ca3Co4O9,,"flux (SrCl2), air",single crystal,Shikano2003APL,http://link.aip.org/link/doi/10.1063/1.1562337,,147.11,2,6.77,13.54,10.8648449,Nakatsugawa,http://dx.doi.org/10.1143/JJAP.46.3004,160556,0.2344237882,12,8
,929,1000,0.00002271,0.000245,2.837,0.9316562434,0.000245,2.643108763,0.002643108763,Ca3Co4O9,Ca3Co4O9,,Ca3Co4O9,,"flux (SrCl2), air",single crystal,Shikano2003APL,http://link.aip.org/link/doi/10.1063/1.1562337,,147.11,2,6.77,13.54,10.8648449,Nakatsugawa,http://dx.doi.org/10.1143/JJAP.46.3004,160556,0.3787157408,12,8
,930,300,0.0001067,0.000117,2,0.01924414246,0.000117,0.03848828491,0.000128294283,Ca3Co4O9,Ca3Co4O9,0,Ca3Co4O9,,"solid state reaction, air",polycrystalline,Xu2002APL,http://dx.doi.org/10.1063/1.1480115,,147.11,2,6.77,13.54,10.8648449,Nakatsugawa,http://dx.doi.org/10.1143/JJAP.46.3004,160556,0.03430178069,12,8
,931,400,0.0001122,0.000121,1.9,0.02747162023,0.000121,0.05219607843,0.0001304901961,Ca3Co4O9,Ca3Co4O9,0,Ca3Co4O9,,"solid state reaction, air",polycrystalline,Xu2002APL,http://dx.doi.org/10.1063/1.1480115,,147.11,2,6.77,13.54,10.8648449,Nakatsugawa,http://dx.doi.org/10.1143/JJAP.46.3004,160556,0.04578290646,12,8
,932,700,0.00009901,0.000147,1.8,0.08487526512,0.000147,0.1527754772,0.0002182506817,Ca3Co4O9,Ca3Co4O9,0,Ca3Co4O9,,"solid state reaction, air",polycrystalline,Xu2002APL,http://dx.doi.org/10.1063/1.1480115,,147.11,2,6.77,13.54,10.8648449,Nakatsugawa,http://dx.doi.org/10.1143/JJAP.46.3004,160556,0.09583768194,12,8
,933,1000,0.00008968,0.000177,1.75,0.1996240602,0.000177,0.3493421053,0.0003493421053,Ca3Co4O9,Ca3Co4O9,0,Ca3Co4O9,,"solid state reaction, air",polycrystalline,Xu2002APL,http://dx.doi.org/10.1063/1.1480115,,147.11,2,6.77,13.54,10.8648449,Nakatsugawa,http://dx.doi.org/10.1143/JJAP.46.3004,160556,0.1554734293,12,8
,934,300,0.0000813,0.000117,2,0.02525645756,0.000117,0.05051291513,0.0001683763838,Ca2.7Na0.3Co4O9,Ca3-xMxCo4O9,0.3,Ca3Co4O9,,"solid state reaction, air",polycrystalline,Xu2002APL,http://dx.doi.org/10.1063/1.1480115,,147.11,2,6.77,13.54,10.8648449,Nakatsugawa,http://dx.doi.org/10.1143/JJAP.46.3004,160556,0.04501845018,12,8
,935,400,0.00005294,0.0001256,1.9,0.06273381982,0.0001256,0.1191942577,0.0002979856441,Ca2.7Na0.3Co4O9,Ca3-xMxCo4O9,0.3,Ca3Co4O9,,"solid state reaction, air",polycrystalline,Xu2002APL,http://dx.doi.org/10.1063/1.1480115,,147.11,2,6.77,13.54,10.8648449,Nakatsugawa,http://dx.doi.org/10.1143/JJAP.46.3004,160556,0.09703139602,12,8
,936,700,0.00008006,0.0001536,2,0.1031418436,0.0001536,0.2062836872,0.0002946909818,Ca2.7Na0.3Co4O9,Ca3-xMxCo4O9,0.3,Ca3Co4O9,,"solid state reaction, air",polycrystalline,Xu2002APL,http://dx.doi.org/10.1063/1.1480115,,147.11,2,6.77,13.54,10.8648449,Nakatsugawa,http://dx.doi.org/10.1143/JJAP.46.3004,160556,0.1066699975,12,8
,937,1000,0.00007283,0.000184,2.05,0.2267626246,0.000184,0.4648633805,0.0004648633805,Ca2.7Na0.3Co4O9,Ca3-xMxCo4O9,0.3,Ca3Co4O9,,"solid state reaction, air",polycrystalline,Xu2002APL,http://dx.doi.org/10.1063/1.1480115,,147.11,2,6.77,13.54,10.8648449,Nakatsugawa,http://dx.doi.org/10.1143/JJAP.46.3004,160556,0.163427695,12,8
,938,300,0.0001035,0.0001354,2,0.0265697971,0.0001354,0.0531395942,0.0001771319807,Ca2.7Bi0.3Co4O9,Ca3-xMxCo4O9,0.3,Ca3Co4O9,,"solid state reaction, air",polycrystalline,Xu2002APL,http://dx.doi.org/10.1063/1.1480115,,147.11,2,6.77,13.54,10.8648449,Nakatsugawa,http://dx.doi.org/10.1143/JJAP.46.3004,160556,0.03536231884,12,8
,939,400,0.00010156,0.0001408,1.9,0.04109500218,0.0001408,0.07808050414,0.0001952012603,Ca2.7Bi0.3Co4O9,Ca3-xMxCo4O9,0.3,Ca3Co4O9,,"solid state reaction, air",polycrystalline,Xu2002APL,http://dx.doi.org/10.1063/1.1480115,,147.11,2,6.77,13.54,10.8648449,Nakatsugawa,http://dx.doi.org/10.1143/JJAP.46.3004,160556,0.05057938268,12,8
,940,700,0.00009095,0.000169,2,0.1099103903,0.000169,0.2198207806,0.0003140296866,Ca2.7Bi0.3Co4O9,Ca3-xMxCo4O9,0.3,Ca3Co4O9,,"solid state reaction, air",polycrystalline,Xu2002APL,http://dx.doi.org/10.1063/1.1480115,,147.11,2,6.77,13.54,10.8648449,Nakatsugawa,http://dx.doi.org/10.1143/JJAP.46.3004,160556,0.09389774601,12,8
,941,1000,0.00007831,0.0001968,2.05,0.2412565445,0.0001968,0.4945759162,0.0004945759162,Ca2.7Bi0.3Co4O9,Ca3-xMxCo4O9,0.3,Ca3Co4O9,,"solid state reaction, air",polycrystalline,Xu2002APL,http://dx.doi.org/10.1063/1.1480115,,147.11,2,6.77,13.54,10.8648449,Nakatsugawa,http://dx.doi.org/10.1143/JJAP.46.3004,160556,0.1519913041,12,8
,942,300,0.00009357,0.000132,2,0.0279320295,0.000132,0.05586405899,0.00018621353,Ca2.4Na0.3Bi0.3Co4O9,Ca3-xMxCo4O9,0.6,Ca3Co4O9,,"solid state reaction, air",polycrystalline,Xu2002APL,http://dx.doi.org/10.1063/1.1480115,,147.11,2,6.77,13.54,10.8648449,Nakatsugawa,http://dx.doi.org/10.1143/JJAP.46.3004,160556,0.03911510099,12,8
,943,400,0.00009225,0.0001446,1.9,0.04771738126,0.0001446,0.09066302439,0.000226657561,Ca2.4Na0.3Bi0.3Co4O9,Ca3-xMxCo4O9,0.6,Ca3Co4O9,,"solid state reaction, air",polycrystalline,Xu2002APL,http://dx.doi.org/10.1063/1.1480115,,147.11,2,6.77,13.54,10.8648449,Nakatsugawa,http://dx.doi.org/10.1143/JJAP.46.3004,160556,0.05568392526,12,8
,944,700,0.00008503,0.000173,1.8,0.1368817542,0.000173,0.2463871575,0.0003519816535,Ca2.4Na0.3Bi0.3Co4O9,Ca3-xMxCo4O9,0.6,Ca3Co4O9,,"solid state reaction, air",polycrystalline,Xu2002APL,http://dx.doi.org/10.1063/1.1480115,,147.11,2,6.77,13.54,10.8648449,Nakatsugawa,http://dx.doi.org/10.1143/JJAP.46.3004,160556,0.1115946006,12,8
,945,1000,0.00007622,0.000205,1.75,0.3150654122,0.000205,0.5513644713,0.0005513644713,Ca2.4Na0.3Bi0.3Co4O9,Ca3-xMxCo4O9,0.6,Ca3Co4O9,,"solid state reaction, air",polycrystalline,Xu2002APL,http://dx.doi.org/10.1063/1.1480115,,147.11,2,6.77,13.54,10.8648449,Nakatsugawa,http://dx.doi.org/10.1143/JJAP.46.3004,160556,0.182929115,12,8
,946,300,0.00000878,-0.0000925,7,0.04176496909,0.0000925,0.2923547836,0.0009745159453,Sr0.9Y0.1TiO3,Sr1-xMxTiO3,0.1,SrTiO3,,"solid state reaction, air",polycrystalline,Obara2004JJAPP2,http://jjap.jsap.jp/link?JJAP/43/L540/,,59.36,1,5,5,11.872,Ma Qian,http://dx.doi.org/10.1016/j.ssi.2010.03.027,181231,0.1191018549,221,48
,947,400,0.00001259,-0.0001195,6,0.07561689171,0.0001195,0.4537013503,0.001134253376,Sr0.9Y0.1TiO3,Sr1-xMxTiO3,0.1,SrTiO3,,"solid state reaction, air",polycrystalline,Obara2004JJAPP2,http://jjap.jsap.jp/link?JJAP/43/L540/,,59.36,1,5,5,11.872,Ma Qian,http://dx.doi.org/10.1016/j.ssi.2010.03.027,181231,0.1292030712,221,48
,948,700,0.0000344,-0.0001853,5,0.1397399012,0.0001853,0.6986995058,0.0009981421512,Sr0.9Y0.1TiO3,Sr1-xMxTiO3,0.1,SrTiO3,,"solid state reaction, air",polycrystalline,Obara2004JJAPP2,http://jjap.jsap.jp/link?JJAP/43/L540/,,59.36,1,5,5,11.872,Ma Qian,http://dx.doi.org/10.1016/j.ssi.2010.03.027,181231,0.09930232558,221,48
,949,1000,0.00006614,-0.000228,4.5,0.1746598125,0.000228,0.7859691563,0.0007859691563,Sr0.9Y0.1TiO3,Sr1-xMxTiO3,0.1,SrTiO3,,"solid state reaction, air",polycrystalline,Obara2004JJAPP2,http://jjap.jsap.jp/link?JJAP/43/L540/,,59.36,1,5,5,11.872,Ma Qian,http://dx.doi.org/10.1016/j.ssi.2010.03.027,181231,0.0819809831,221,48
,950,300,0.000004937,-0.0000822,4.07,0.1008805296,0.0000822,0.4105837553,0.001368612518,Ba0.3Sr0.6La0.1TiO3,BaxSr1-x-yLayTiO3,0.1,SrTiO3,,"solid state reaction , Ar",polycrystalline,Muta2004JAC,http://dx.doi.org/10.1016/j.jallcom.2003.07.016,,59.36,1,5,5,11.872,Ma Qian,http://dx.doi.org/10.1016/j.ssi.2010.03.027,181231,0.3642952802,221,48
,951,400,0.000007634,-0.0001014,3.36,0.1603409559,0.0001014,0.5387456117,0.001346864029,Ba0.3Sr0.6La0.1TiO3,BaxSr1-x-yLayTiO3,0.1,SrTiO3,,"solid state reaction , Ar",polycrystalline,Muta2004JAC,http://dx.doi.org/10.1016/j.jallcom.2003.07.016,,59.36,1,5,5,11.872,Ma Qian,http://dx.doi.org/10.1016/j.ssi.2010.03.027,181231,0.3805032623,221,48
,952,700,0.0000273,-0.000163,1.91,0.3566787488,0.000163,0.6812564103,0.0009732234432,Ba0.3Sr0.6La0.1TiO3,BaxSr1-x-yLayTiO3,0.1,SrTiO3,,"solid state reaction , Ar",polycrystalline,Muta2004JAC,http://dx.doi.org/10.1016/j.jallcom.2003.07.016,,59.36,1,5,5,11.872,Ma Qian,http://dx.doi.org/10.1016/j.ssi.2010.03.027,181231,0.3275607464,221,48
,953,300,0.005868,0.0002948,,,0.0002948,0.004443100204,0.00001481033401,CuRhO2,CuRh1-xMgxO2,0,CuRhO2,,"solid state reaction , air",polycrystalline,Maignan2009PRB,http://dx.doi.org/10.1103/PhysRevB.80.115103,,140.56,3,4,12,11.71333333,Bertaut,http://dx.doi.org/10.1016/0022-3697(61)90220-7,29214,,166,12
,954,400,0.002193,0.0002753,,,0.0002753,0.01382400182,0.00003456000456,CuRhO2,CuRh1-xMgxO2,0,CuRhO2,,"solid state reaction , air",polycrystalline,Maignan2009PRB,http://dx.doi.org/10.1103/PhysRevB.80.115103,,140.56,3,4,12,11.71333333,Bertaut,http://dx.doi.org/10.1016/0022-3697(61)90220-7,29214,,166,12
,955,700,0.001023,0.0002924,,,0.0002924,0.05850286608,0.00008357552297,CuRhO2,CuRh1-xMgxO2,0,CuRhO2,,"solid state reaction , air",polycrystalline,Maignan2009PRB,http://dx.doi.org/10.1103/PhysRevB.80.115103,,140.56,3,4,12,11.71333333,Bertaut,http://dx.doi.org/10.1016/0022-3697(61)90220-7,29214,,166,12
,956,1000,0.001066,0.000317,,,0.000317,0.0942673546,0.0000942673546,CuRhO2,CuRh1-xMgxO2,0,CuRhO2,,"solid state reaction , air",polycrystalline,Maignan2009PRB,http://dx.doi.org/10.1103/PhysRevB.80.115103,,140.56,3,4,12,11.71333333,Bertaut,http://dx.doi.org/10.1016/0022-3697(61)90220-7,29214,,166,12
,957,300,0.001314,0.000261,,,0.000261,0.01555273973,0.00005184246575,CuRh0.99Mg0.01O2,CuRh1-xMgxO2,0.01,CuRhO2,,"solid state reaction , air",polycrystalline,Maignan2009PRB,http://dx.doi.org/10.1103/PhysRevB.80.115103,,140.56,3,4,12,11.71333333,Bertaut,http://dx.doi.org/10.1016/0022-3697(61)90220-7,29214,,166,12
,958,400,0.000656,0.000259,,,0.000259,0.04090304878,0.000102257622,CuRh0.99Mg0.01O2,CuRh1-xMgxO2,0.01,CuRhO2,,"solid state reaction , air",polycrystalline,Maignan2009PRB,http://dx.doi.org/10.1103/PhysRevB.80.115103,,140.56,3,4,12,11.71333333,Bertaut,http://dx.doi.org/10.1016/0022-3697(61)90220-7,29214,,166,12
,959,700,0.000458,0.000283,,,0.000283,0.1224067686,0.0001748668122,CuRh0.99Mg0.01O2,CuRh1-xMgxO2,0.01,CuRhO2,,"solid state reaction , air",polycrystalline,Maignan2009PRB,http://dx.doi.org/10.1103/PhysRevB.80.115103,,140.56,3,4,12,11.71333333,Bertaut,http://dx.doi.org/10.1016/0022-3697(61)90220-7,29214,,166,12
,960,1000,0.000488,0.000315,,,0.000315,0.203329918,0.000203329918,CuRh0.99Mg0.01O2,CuRh1-xMgxO2,0.01,CuRhO2,,"solid state reaction , air",polycrystalline,Maignan2009PRB,http://dx.doi.org/10.1103/PhysRevB.80.115103,,140.56,3,4,12,11.71333333,Bertaut,http://dx.doi.org/10.1016/0022-3697(61)90220-7,29214,,166,12
,961,300,0.00011,0.0001744,,,0.0001744,0.08295098182,0.0002765032727,CuRh0.96Mg0.04O2,CuRh1-xMgxO2,0.04,CuRhO2,,"solid state reaction , air",polycrystalline,Maignan2009PRB,http://dx.doi.org/10.1103/PhysRevB.80.115103,,140.56,3,4,12,11.71333333,Bertaut,http://dx.doi.org/10.1016/0022-3697(61)90220-7,29214,,166,12
,962,400,0.000112,0.0001878,,,0.0001878,0.1259601429,0.0003149003571,CuRh0.96Mg0.04O2,CuRh1-xMgxO2,0.04,CuRhO2,,"solid state reaction , air",polycrystalline,Maignan2009PRB,http://dx.doi.org/10.1103/PhysRevB.80.115103,,140.56,3,4,12,11.71333333,Bertaut,http://dx.doi.org/10.1016/0022-3697(61)90220-7,29214,,166,12
,963,700,0.000137,0.000232,,,0.000232,0.2750131387,0.0003928759124,CuRh0.96Mg0.04O2,CuRh1-xMgxO2,0.04,CuRhO2,,"solid state reaction , air",polycrystalline,Maignan2009PRB,http://dx.doi.org/10.1103/PhysRevB.80.115103,,140.56,3,4,12,11.71333333,Bertaut,http://dx.doi.org/10.1016/0022-3697(61)90220-7,29214,,166,12
,964,1000,0.000171,0.000271,,,0.000271,0.4294795322,0.0004294795322,CuRh0.96Mg0.04O2,CuRh1-xMgxO2,0.04,CuRhO2,,"solid state reaction , air",polycrystalline,Maignan2009PRB,http://dx.doi.org/10.1103/PhysRevB.80.115103,,140.56,3,4,12,11.71333333,Bertaut,http://dx.doi.org/10.1016/0022-3697(61)90220-7,29214,,166,12
,965,300,0.0000164,0.0000997,,,0.0000997,0.1818309146,0.0006061030488,CuRh0.9Mg0.1O2,CuRh1-xMgxO2,0.1,CuRhO2,,"solid state reaction , air",polycrystalline,Maignan2009PRB,http://dx.doi.org/10.1103/PhysRevB.80.115103,,140.56,3,4,12,11.71333333,Bertaut,http://dx.doi.org/10.1016/0022-3697(61)90220-7,29214,,166,12
,966,400,0.0000196,0.000115,,,0.000115,0.2698979592,0.000674744898,CuRh0.9Mg0.1O2,CuRh1-xMgxO2,0.1,CuRhO2,,"solid state reaction , air",polycrystalline,Maignan2009PRB,http://dx.doi.org/10.1103/PhysRevB.80.115103,,140.56,3,4,12,11.71333333,Bertaut,http://dx.doi.org/10.1016/0022-3697(61)90220-7,29214,,166,12
,967,700,0.0000299,0.0001449,,,0.0001449,0.4915453846,0.0007022076923,CuRh0.9Mg0.1O2,CuRh1-xMgxO2,0.1,CuRhO2,,"solid state reaction , air",polycrystalline,Maignan2009PRB,http://dx.doi.org/10.1103/PhysRevB.80.115103,,140.56,3,4,12,11.71333333,Bertaut,http://dx.doi.org/10.1016/0022-3697(61)90220-7,29214,,166,12
,968,1000,0.0000408,0.0001682,,,0.0001682,0.6934127451,0.0006934127451,CuRh0.6Mg0.4O2,CuRh1-xMgxO2,0.1,CuRhO2,,"solid state reaction , air",polycrystalline,Maignan2009PRB,http://dx.doi.org/10.1103/PhysRevB.80.115103,,140.56,3,4,12,11.71333333,Bertaut,http://dx.doi.org/10.1016/0022-3697(61)90220-7,29214,,166,12
,969,300,0.01199,0.000165,1.45,0.0004697880418,0.000165,0.0006811926606,0.000002270642202,Ca3AlSb3,Ca3-xNaxAlSb3,0,Ca3AlSb3,,"solid state reaction, Ar",polycrystalline,Zevalkink2011EES,http://dx.doi.org/10.1039/c0ee00517g,,822.88,4,7,28,29.38857143,Cordier,http://dx.doi.org/10.1039/C0EE00517G,36363,0.0004210405223,62,8
,970,400,0.005376,0.0003159,1.1,0.006750054789,0.0003159,0.007425060268,0.00001856265067,Ca3AlSb3,Ca3-xNaxAlSb3,0,Ca3AlSb3,,"solid state reaction, Ar",polycrystalline,Zevalkink2011EES,http://dx.doi.org/10.1039/c0ee00517g,,822.88,4,7,28,29.38857143,Cordier,http://dx.doi.org/10.1039/C0EE00517G,36363,0.0016504329,62,8
,971,700,0.002486,0.0004118,0.745,0.06409340252,0.0004118,0.04774958488,0.00006821369268,Ca3AlSb3,Ca3-xNaxAlSb3,0,Ca3AlSb3,,"solid state reaction, Ar",polycrystalline,Zevalkink2011EES,http://dx.doi.org/10.1039/c0ee00517g,,822.88,4,7,28,29.38857143,Cordier,http://dx.doi.org/10.1039/C0EE00517G,36363,0.009222113635,62,8
,972,1000,0.001127,0.0002654,0.692,0.09031748311,0.0002654,0.06249969831,0.00006249969831,Ca3AlSb3,Ca3-xNaxAlSb3,0,Ca3AlSb3,,"solid state reaction, Ar",polycrystalline,Zevalkink2011EES,http://dx.doi.org/10.1039/c0ee00517g,,822.88,4,7,28,29.38857143,Cordier,http://dx.doi.org/10.1039/C0EE00517G,36363,0.03128670418,62,8
,973,300,0.000981,0.00009,1.67,0.001483271988,0.00009,0.00247706422,0.000008256880734,Ca2.97Na0.03AlSb3,Ca3-xNaxAlSb3,0.03,Ca3AlSb3,,"solid state reaction, Ar",polycrystalline,Zevalkink2011EES,http://dx.doi.org/10.1039/c0ee00517g,,822.88,4,7,28,29.38857143,Cordier,http://dx.doi.org/10.1039/C0EE00517G,36363,0.004468127964,62,8
,974,400,0.000461,0.0001648,1.24,0.01900429641,0.0001648,0.02356532755,0.00005891331887,Ca2.97Na0.03AlSb3,Ca3-xNaxAlSb3,0.03,Ca3AlSb3,,"solid state reaction, Ar",polycrystalline,Zevalkink2011EES,http://dx.doi.org/10.1039/c0ee00517g,,822.88,4,7,28,29.38857143,Cordier,http://dx.doi.org/10.1039/C0EE00517G,36363,0.01707368274,62,8
,975,700,0.000172,0.000248,0.84,0.2979844961,0.000248,0.2503069767,0.0003575813953,Ca2.97Na0.03AlSb3,Ca3-xNaxAlSb3,0.03,Ca3AlSb3,,"solid state reaction, Ar",polycrystalline,Zevalkink2011EES,http://dx.doi.org/10.1039/c0ee00517g,,822.88,4,7,28,29.38857143,Cordier,http://dx.doi.org/10.1039/C0EE00517G,36363,0.1182170543,62,8
,976,1000,0.000172,0.0002875,0.67,0.7172531239,0.0002875,0.480559593,0.000480559593,Ca2.97Na0.03AlSb3,Ca3-xNaxAlSb3,0.03,Ca3AlSb3,,"solid state reaction, Ar",polycrystalline,Zevalkink2011EES,http://dx.doi.org/10.1039/c0ee00517g,,822.88,4,7,28,29.38857143,Cordier,http://dx.doi.org/10.1039/C0EE00517G,36363,0.2117320375,62,8
,977,300,0.000589,0.0000815,1.65,0.002050393579,0.0000815,0.003383149406,0.00001127716469,Ca2.94Na0.06AlSb3,Ca3-xNaxAlSb3,0.06,Ca3AlSb3,,"solid state reaction, Ar",polycrystalline,Zevalkink2011EES,http://dx.doi.org/10.1039/c0ee00517g,,822.88,4,7,28,29.38857143,Cordier,http://dx.doi.org/10.1039/C0EE00517G,36363,0.007532026547,62,8
,978,400,0.000337,0.00015,1.27,0.0210285287,0.00015,0.02670623145,0.00006676557864,Ca2.94Na0.06AlSb3,Ca3-xNaxAlSb3,0.06,Ca3AlSb3,,"solid state reaction, Ar",polycrystalline,Zevalkink2011EES,http://dx.doi.org/10.1039/c0ee00517g,,822.88,4,7,28,29.38857143,Cordier,http://dx.doi.org/10.1039/C0EE00517G,36363,0.02280427113,62,8
,979,700,0.000138,0.000233,0.86,0.3202081227,0.000233,0.2753789855,0.0003933985507,Ca2.94Na0.06AlSb3,Ca3-xNaxAlSb3,0.06,Ca3AlSb3,,"solid state reaction, Ar",polycrystalline,Zevalkink2011EES,http://dx.doi.org/10.1039/c0ee00517g,,822.88,4,7,28,29.38857143,Cordier,http://dx.doi.org/10.1039/C0EE00517G,36363,0.1439164139,62,8
,980,1000,0.000134,0.000262,0.698,0.7339092503,0.000262,0.5122686567,0.0005122686567,Ca2.94Na0.06AlSb3,Ca3-xNaxAlSb3,0.06,Ca3AlSb3,,"solid state reaction, Ar",polycrystalline,Zevalkink2011EES,http://dx.doi.org/10.1039/c0ee00517g,,822.88,4,7,28,29.38857143,Cordier,http://dx.doi.org/10.1039/C0EE00517G,36363,0.260873284,62,8
,981,300,0.000275,0.0001126,1.59,0.008698977702,0.0001126,0.01383137455,0.00004610458182,Ca2.85Na0.15AlSb3,Ca3-xNaxAlSb3,0.15,Ca3AlSb3,,"solid state reaction, Ar",polycrystalline,Zevalkink2011EES,http://dx.doi.org/10.1039/c0ee00517g,,822.88,4,7,28,29.38857143,Cordier,http://dx.doi.org/10.1039/C0EE00517G,36363,0.01674099485,62,8