# Outliers,Original Index,Temperature (K),Electrical Resistivity (Ohm m),Seebeck Coefficient (V/K),Thermal Conductivity (W/(m K)),Figure of Merit,Thermopower (V/K),Thermal Conductivity x Figure of Merit (W/m K),Power Factor (W/(K^2 m)),Formula,Series,Series Index,Family,Electrical Conductivity (S/m),Preparative Route,Final Form,Authors,DOI,Comments,Cell Volume (A^3),Formula Units per Cell,Atoms per Formula Unit,Total Atoms Per Unit Cell,Average Atomic Volume,Author of Unit Cell,Unit Cell DOI,ICSD ID,Electronic over Total Thermal Conductivity,Space Group,Number of Symmetry Elements
outliers,orig_index,T,rho,seebeck,kappa,zT,seebeck_abs,kappa_zT,power_factor,formula,series,x,family,sigma,preparative_route,final_form,authors,doi,comments,cell_volume,formula_units_per_cell,atoms_per_formula_unit,total_atoms_per_unit_cell,average_atomic_volume,author_of_unit_cell,unit_cell_doi,icsd_id,kel/ktot,space_group,symmetry_elements
,0,300,0.5,-0.000462967,,,0.000462967,0.0001286030659,0.0000004286768862,CaMnO3,Ca1-xLaxMnO3,0,CaMnO3,2,Solid state reaction,polycrystalline,Lan2009JMST,http://www.jmst.org/EN/Y2009/V25/I04/0535,,206.97,4,5,20,10.3485,Poeppelmeier,http://dx.doi.org/10.1016/0022-4596(82)90292-4,35218,,62,8
,1,400,0.5,-0.000462967,,,0.000462967,0.0001714707545,0.0000004286768862,CaMnO3,Ca1-xLaxMnO3,0,CaMnO3,2,Solid state reaction,polycrystalline,Lan2009JMST,http://www.jmst.org/EN/Y2009/V25/I04/0535,,206.97,4,5,20,10.3485,Poeppelmeier,http://dx.doi.org/10.1016/0022-4596(82)90292-4,35218,,62,8
,2,700,0.02417491884,-0.000470651,,,0.000470651,0.00641403,0.0000091629,CaMnO3,Ca1-xLaxMnO3,0,CaMnO3,41.36518541,Solid state reaction,polycrystalline,Lan2009JMST,http://www.jmst.org/EN/Y2009/V25/I04/0535,,206.97,4,5,20,10.3485,Poeppelmeier,http://dx.doi.org/10.1016/0022-4596(82)90292-4,35218,,62,8
,3,1000,0.001774898663,-0.000279829,,,0.000279829,0.0441176,0.0000441176,CaMnO3,Ca1-xLaxMnO3,0,CaMnO3,563.4124477,Solid state reaction,polycrystalline,Lan2009JMST,http://www.jmst.org/EN/Y2009/V25/I04/0535,,206.97,4,5,20,10.3485,Poeppelmeier,http://dx.doi.org/10.1016/0022-4596(82)90292-4,35218,,62,8
,4,300,0.0004611461326,-0.000201708,,,0.000201708,0.02646847564,0.00008822825215,Ca0.98La0.02MnO3,Ca1-xLaxMnO3,0.02,CaMnO3,2168.51,Solid state reaction,polycrystalline,Lan2009JMST,http://www.jmst.org/EN/Y2009/V25/I04/0535,,207.74,4,5,20,10.387,Taguchi,http://dx.doi.org/10.1006/jssc.1996.0250,82210,,62,8
,5,400,0.0004611461326,-0.000201708,,,0.000201708,0.03529130086,0.00008822825215,Ca0.98La0.02MnO3,Ca1-xLaxMnO3,0.02,CaMnO3,2168.51,Solid state reaction,polycrystalline,Lan2009JMST,http://www.jmst.org/EN/Y2009/V25/I04/0535,,207.74,4,5,20,10.387,Taguchi,http://dx.doi.org/10.1006/jssc.1996.0250,82210,,62,8
,6,700,0.0006504911208,-0.00022412,,,0.00022412,0.05405276253,0.00007721823219,Ca0.98La0.02MnO3,Ca1-xLaxMnO3,0.02,CaMnO3,1537.3,Solid state reaction,polycrystalline,Lan2009JMST,http://www.jmst.org/EN/Y2009/V25/I04/0535,,207.74,4,5,20,10.387,Taguchi,http://dx.doi.org/10.1006/jssc.1996.0250,82210,,62,8
,7,1000,0.0004108446555,-0.000190181,,,0.000190181,0.08803525195,0.00008803525195,Ca0.98La0.02MnO3,Ca1-xLaxMnO3,0.02,CaMnO3,2434.01,Solid state reaction,polycrystalline,Lan2009JMST,http://www.jmst.org/EN/Y2009/V25/I04/0535,,207.74,4,5,20,10.387,Taguchi,http://dx.doi.org/10.1006/jssc.1996.0250,82210,,62,8
,8,300,0.0001525550686,-0.000123586,,,0.000123586,0.03003538238,0.0001001179413,Ca0.96La0.04MnO3,Ca1-xLaxMnO3,0.04,CaMnO3,6555.01,Solid state reaction,polycrystalline,Lan2009JMST,http://www.jmst.org/EN/Y2009/V25/I04/0535,,208.49,4,5,20,10.4245,Taguchi,http://dx.doi.org/10.1006/jssc.1996.0250,82209,,62,8
,9,400,0.0001525550686,-0.000123586,,,0.000123586,0.04004717651,0.0001001179413,Ca0.96La0.04MnO3,Ca1-xLaxMnO3,0.04,CaMnO3,6555.01,Solid state reaction,polycrystalline,Lan2009JMST,http://www.jmst.org/EN/Y2009/V25/I04/0535,,208.49,4,5,20,10.4245,Taguchi,http://dx.doi.org/10.1006/jssc.1996.0250,82209,,62,8
,10,700,0.0002167828984,-0.000173533,,,0.000173533,0.09723825825,0.0001389117975,Ca0.96La0.04MnO3,Ca1-xLaxMnO3,0.04,CaMnO3,4612.91,Solid state reaction,polycrystalline,Lan2009JMST,http://www.jmst.org/EN/Y2009/V25/I04/0535,,208.49,4,5,20,10.4245,Taguchi,http://dx.doi.org/10.1006/jssc.1996.0250,82209,,62,8
,11,1000,0.0002221619916,-0.000160085,,,0.000160085,0.1153536977,0.0001153536977,Ca0.96La0.04MnO3,Ca1-xLaxMnO3,0.04,CaMnO3,4501.22,Solid state reaction,polycrystalline,Lan2009JMST,http://www.jmst.org/EN/Y2009/V25/I04/0535,,208.49,4,5,20,10.4245,Taguchi,http://dx.doi.org/10.1006/jssc.1996.0250,82209,,62,8
,12,300,0.0001216710793,-0.000103735,,,0.000103735,0.02653288758,0.00008844295859,Ca0.94La0.06MnO3,Ca1-xLaxMnO3,0.06,CaMnO3,8218.88,Solid state reaction,polycrystalline,Lan2009JMST,http://www.jmst.org/EN/Y2009/V25/I04/0535,,209.24,4,5,20,10.462,Taguchi,http://dx.doi.org/10.1006/jssc.1996.0250,82208,,62,8
,13,400,0.0001216710793,-0.000103735,,,0.000103735,0.03537718343,0.00008844295859,Ca0.94La0.06MnO3,Ca1-xLaxMnO3,0.06,CaMnO3,8218.88,Solid state reaction,polycrystalline,Lan2009JMST,http://www.jmst.org/EN/Y2009/V25/I04/0535,,209.24,4,5,20,10.462,Taguchi,http://dx.doi.org/10.1006/jssc.1996.0250,82208,,62,8
,14,700,0.0001702594243,-0.000127428,,,0.000127428,0.06676004384,0.00009537149119,Ca0.94La0.06MnO3,Ca1-xLaxMnO3,0.06,CaMnO3,5873.39,Solid state reaction,polycrystalline,Lan2009JMST,http://www.jmst.org/EN/Y2009/V25/I04/0535,,209.24,4,5,20,10.462,Taguchi,http://dx.doi.org/10.1006/jssc.1996.0250,82208,,62,8
,15,1000,0.0001883970052,-0.000135752,,,0.000135752,0.0978179323,0.0000978179323,Ca0.94La0.06MnO3,Ca1-xLaxMnO3,0.06,CaMnO3,5307.94,Solid state reaction,polycrystalline,Lan2009JMST,http://www.jmst.org/EN/Y2009/V25/I04/0535,,209.24,4,5,20,10.462,Taguchi,http://dx.doi.org/10.1006/jssc.1996.0250,82208,,62,8
,16,300,0.00009966115208,-0.0000832444,,,0.0000832444,0.02085957262,0.00006953190874,Ca0.92La0.08MnO3,Ca1-xLaxMnO3,0.08,CaMnO3,10034,Solid state reaction,polycrystalline,Lan2009JMST,http://www.jmst.org/EN/Y2009/V25/I04/0535,,209.93,4,5,20,10.4965,Taguchi,http://dx.doi.org/10.1006/jssc.1996.0250,82207,,62,8
,17,400,0.00009966115208,-0.0000832444,,,0.0000832444,0.0278127635,0.00006953190874,Ca0.92La0.08MnO3,Ca1-xLaxMnO3,0.08,CaMnO3,10034,Solid state reaction,polycrystalline,Lan2009JMST,http://www.jmst.org/EN/Y2009/V25/I04/0535,,209.93,4,5,20,10.4965,Taguchi,http://dx.doi.org/10.1006/jssc.1996.0250,82207,,62,8
,18,700,0.0001363220581,-0.000118463,,,0.000118463,0.07206051458,0.0001029435923,Ca0.92La0.08MnO3,Ca1-xLaxMnO3,0.08,CaMnO3,7335.57,Solid state reaction,polycrystalline,Lan2009JMST,http://www.jmst.org/EN/Y2009/V25/I04/0535,,209.93,4,5,20,10.4965,Taguchi,http://dx.doi.org/10.1006/jssc.1996.0250,82207,,62,8
,19,1000,0.0001570662537,-0.000140875,,,0.000140875,0.1263528298,0.0001263528298,Ca0.92La0.08MnO3,Ca1-xLaxMnO3,0.08,CaMnO3,6366.74,Solid state reaction,polycrystalline,Lan2009JMST,http://www.jmst.org/EN/Y2009/V25/I04/0535,,209.93,4,5,20,10.4965,Taguchi,http://dx.doi.org/10.1006/jssc.1996.0250,82207,,62,8
,20,700,1.529285824,0.000483473,,,0.000483473,0.0001069926215,0.0000001528466021,NiO,LixNi1-xO,0,NiO,0.6539,Solid state reaction,polycrystalline,Shin1999JJAPP2,http://dx.doi.org/10.1143/JJAP.38.L1336,,72.93,4,2,8,9.11625,Sasaki,http://dx.doi.org/10.2183/pjab.55.43,9866,,225,192
,21,1000,0.1464759355,0.000642619,,,0.000642619,0.002819297094,0.000002819297094,NiO,LixNi1-xO,0,NiO,6.82706,Solid state reaction,polycrystalline,Shin1999JJAPP2,http://dx.doi.org/10.1143/JJAP.38.L1336,,72.93,4,2,8,9.11625,Sasaki,http://dx.doi.org/10.2183/pjab.55.43,9866,,225,192
,22,400,0.2886769359,0.00029497,16.1715,0.000007455096952,0.00029497,0.0001205601004,0.0000003014002509,Li0.0024Ni0.9976O,LixNi1-xO,0.0024,NiO,3.46408,Solid state reaction,polycrystalline,Shin1999JJAPP2,http://dx.doi.org/10.1143/JJAP.38.L1336,Data at 460 K,72.93,4,2,8,9.11625,Sasaki,http://dx.doi.org/10.2183/pjab.55.43,9866,0.000002090679331,225,192
,23,700,0.002628873974,0.00024975,11.391,0.001458066779,0.00024975,0.01660883868,0.0000237269124,Li0.0024Ni0.9976O,LixNi1-xO,0.0024,NiO,380.391,Solid state reaction,polycrystalline,Shin1999JJAPP2,http://dx.doi.org/10.1143/JJAP.38.L1336,,72.93,4,2,8,9.11625,Sasaki,http://dx.doi.org/10.2183/pjab.55.43,9866,0.000570369439,225,192
,24,1000,0.0004660440318,0.000262408,8.44401,0.01749759873,0.000262408,0.1477498986,0.0001477498986,Li0.0024Ni0.9976O,LixNi1-xO,0.0024,NiO,2145.72,Solid state reaction,polycrystalline,Shin1999JJAPP2,http://dx.doi.org/10.1143/JJAP.38.L1336,,72.93,4,2,8,9.11625,Sasaki,http://dx.doi.org/10.2183/pjab.55.43,9866,0.006200320464,225,192
,25,400,0.0508646999,0.00024937,8.32761,0.00005872344661,0.00024937,0.0004890259612,0.000001222564903,Li0.0066Ni0.9944O,LixNi1-xO,0.0066,NiO,19.66,Solid state reaction,polycrystalline,Shin1999JJAPP2,http://dx.doi.org/10.1143/JJAP.38.L1336,Data at 460 K,72.93,4,2,8,9.11625,Sasaki,http://dx.doi.org/10.2183/pjab.55.43,9866,0.00002304161698,225,192
,26,700,0.0003162085332,0.000200391,6.0105,0.01479007165,0.000200391,0.08889572565,0.0001269938938,Li0.0066Ni0.9944O,LixNi1-xO,0.0066,NiO,3162.47,Solid state reaction,polycrystalline,Shin1999JJAPP2,http://dx.doi.org/10.1143/JJAP.38.L1336,,72.93,4,2,8,9.11625,Sasaki,http://dx.doi.org/10.2183/pjab.55.43,9866,0.008986771084,225,192
,27,1000,0.0002847842617,0.000206655,5.30518,0.02826674014,0.000206655,0.1499601445,0.0001499601445,Li0.0066Ni0.9944O,LixNi1-xO,0.0066,NiO,3511.43,Solid state reaction,polycrystalline,Shin1999JJAPP2,http://dx.doi.org/10.1143/JJAP.38.L1336,,72.93,4,2,8,9.11625,Sasaki,http://dx.doi.org/10.2183/pjab.55.43,9866,0.0161500443,225,192
,28,400,0.0006427230892,0.000116907,,,0.000116907,0.008505838286,0.00002126459572,Li0.0184Ni0.9816O,LixNi1-xO,0.0184,NiO,1555.88,Solid state reaction,polycrystalline,Shin1999JJAPP2,http://dx.doi.org/10.1143/JJAP.38.L1336,Data at 460 K,72.93,4,2,8,9.11625,Sasaki,http://dx.doi.org/10.2183/pjab.55.43,9866,,225,192
,29,700,0.0001980492152,0.0000978809,,,0.0000978809,0.03386264067,0.00004837520095,Li0.0184Ni0.9816O,LixNi1-xO,0.0184,NiO,5049.25,Solid state reaction,polycrystalline,Shin1999JJAPP2,http://dx.doi.org/10.1143/JJAP.38.L1336,,72.93,4,2,8,9.11625,Sasaki,http://dx.doi.org/10.2183/pjab.55.43,9866,,225,192
,30,1000,0.00006660716427,0.000105171,,,0.000105171,0.1660623052,0.0001660623052,Li0.0184Ni0.9816O,LixNi1-xO,0.0184,NiO,15013.4,Solid state reaction,polycrystalline,Shin1999JJAPP2,http://dx.doi.org/10.1143/JJAP.38.L1336,,72.93,4,2,8,9.11625,Sasaki,http://dx.doi.org/10.2183/pjab.55.43,9866,,225,192
,31,400,0.0001234325608,0.000102591,3.75078,0.009093418669,0.000102591,0.03410741288,0.00008526853219,Li0.0242Ni0.9758O,LixNi1-xO,0.0242,NiO,8101.59,Solid state reaction,polycrystalline,Shin1999JJAPP2,http://dx.doi.org/10.1143/JJAP.38.L1336,Data at 460 K,72.93,4,2,8,9.11625,Sasaki,http://dx.doi.org/10.2183/pjab.55.43,9866,0.02108135332,225,192
,32,700,0.00004865540781,0.0000773734,3.49599,0.02463656209,0.0000773734,0.08612917471,0.0001230416782,Li0.0242Ni0.9758O,LixNi1-xO,0.0242,NiO,20552.7,Solid state reaction,polycrystalline,Shin1999JJAPP2,http://dx.doi.org/10.1143/JJAP.38.L1336,,72.93,4,2,8,9.11625,Sasaki,http://dx.doi.org/10.2183/pjab.55.43,9866,0.1004122197,225,192
,33,1000,0.00003874392205,0.0000794948,2.54979,0.06396898301,0.0000794948,0.1631074732,0.0001631074732,Li0.0242Ni0.9758O,LixNi1-xO,0.0242,NiO,25810.5,Solid state reaction,polycrystalline,Shin1999JJAPP2,http://dx.doi.org/10.1143/JJAP.38.L1336,,72.93,4,2,8,9.11625,Sasaki,http://dx.doi.org/10.2183/pjab.55.43,9866,0.2469913993,225,192
,34,300,0.05007604258,-0.000572037,,,0.000572037,0.001960376535,0.000006534588449,CaMnO3,Ca1-xBixMn1-yNbyO3,0,CaMnO3,19.96962916,Solid state reaction,polycrystalline,Park2009JAC,http://dx.doi.org/10.1016/j.jallcom.2009.08.012,"Extrapolated from 325 K, x=y",206.97,4,5,20,10.3485,Poeppelmeier,http://dx.doi.org/10.1016/0022-4596(82)90292-4,35218,,62,8
,35,400,0.02925074959,-0.000549121,3.30607,0.001247231446,0.000549121,0.004123434467,0.00001030858617,CaMnO3,Ca1-xBixMn1-yNbyO3,0,CaMnO3,34.18715807,Solid state reaction,polycrystalline,Park2009JAC,http://dx.doi.org/10.1016/j.jallcom.2009.08.012,x=y,206.97,4,5,20,10.3485,Poeppelmeier,http://dx.doi.org/10.1016/0022-4596(82)90292-4,35218,0.0001009254682,62,8
,36,700,0.006432443793,-0.000477482,2.04673,0.01212203388,0.000477482,0.02481053039,0.00003544361485,CaMnO3,Ca1-xBixMn1-yNbyO3,0,CaMnO3,155.4619103,Solid state reaction,polycrystalline,Park2009JAC,http://dx.doi.org/10.1016/j.jallcom.2009.08.012,x=y,206.97,4,5,20,10.3485,Poeppelmeier,http://dx.doi.org/10.1016/0022-4596(82)90292-4,35218,0.001297332539,62,8
,37,1000,0.001105711942,-0.000406813,1.67874,0.08915879837,0.000406813,0.1496744412,0.0001496744412,CaMnO3,Ca1-xBixMn1-yNbyO3,0,CaMnO3,904.3946821,Solid state reaction,polycrystalline,Park2009JAC,http://dx.doi.org/10.1016/j.jallcom.2009.08.012,"Extrapolated from 972 K, x=y",206.97,4,5,20,10.3485,Poeppelmeier,http://dx.doi.org/10.1016/0022-4596(82)90292-4,35218,0.01314511493,62,8
,38,300,0.0002032591008,-0.000100036,2.51281,0.005877927685,0.000100036,0.01477011547,0.00004923371822,Ca0.98Bi0.02Mn0.98Nb0.02O3,Ca1-xBixMn1-yNbyO3,0.02,CaMnO3,4919.828908,Solid state reaction,polycrystalline,Park2009JAC,http://dx.doi.org/10.1016/j.jallcom.2009.08.012,"Extrapolated from 325 K, x=y",206.97,4,5,20,10.3485,Poeppelmeier,http://dx.doi.org/10.1016/0022-4596(82)90292-4,35218,0.01433182278,62,8
,39,400,0.0002153723764,-0.000119206,2.27454,0.01160306281,0.000119206,0.02639163049,0.00006597907622,Ca0.98Bi0.02Mn0.98Nb0.02O3,Ca1-xBixMn1-yNbyO3,0.02,CaMnO3,4643.120983,Solid state reaction,polycrystalline,Park2009JAC,http://dx.doi.org/10.1016/j.jallcom.2009.08.012,x=y,206.97,4,5,20,10.3485,Poeppelmeier,http://dx.doi.org/10.1016/0022-4596(82)90292-4,35218,0.01992352775,62,8
,40,700,0.000259143309,-0.000184305,1.87848,0.04884562817,0.000184305,0.09175553561,0.0001310793366,Ca0.98Bi0.02Mn0.98Nb0.02O3,Ca1-xBixMn1-yNbyO3,0.02,CaMnO3,3858.868685,Solid state reaction,polycrystalline,Park2009JAC,http://dx.doi.org/10.1016/j.jallcom.2009.08.012,x=y,206.97,4,5,20,10.3485,Poeppelmeier,http://dx.doi.org/10.1016/0022-4596(82)90292-4,35218,0.03508660041,62,8
,41,1000,0.0002663790097,-0.000205164,1.73598,0.09102435246,0.000205164,0.1580164554,0.0001580164554,Ca0.98Bi0.02Mn0.98Nb0.02O3,Ca1-xBixMn1-yNbyO3,0.02,CaMnO3,3754.049545,Solid state reaction,polycrystalline,Park2009JAC,http://dx.doi.org/10.1016/j.jallcom.2009.08.012,"Extrapolated from 972 K, x=y",206.97,4,5,20,10.3485,Poeppelmeier,http://dx.doi.org/10.1016/0022-4596(82)90292-4,35218,0.05276489873,62,8
,42,300,0.0000886420926,-0.0000911852,2.2675,0.01241031111,0.0000911852,0.02814038045,0.00009380126817,Ca0.96Bi0.04Mn0.96Nb0.04O3,Ca1-xBixMn1-yNbyO3,0.04,CaMnO3,11281.32212,Solid state reaction,polycrystalline,Park2009JAC,http://dx.doi.org/10.1016/j.jallcom.2009.08.012,"Extrapolated from 325 K, x=y",206.97,4,5,20,10.3485,Poeppelmeier,http://dx.doi.org/10.1016/0022-4596(82)90292-4,35218,0.03641864517,62,8
,43,400,0.00009823584835,-0.000114152,2.16005,0.02456366903,0.000114152,0.05305875329,0.0001326468832,Ca0.96Bi0.04Mn0.96Nb0.04O3,Ca1-xBixMn1-yNbyO3,0.04,CaMnO3,10179.58329,Solid state reaction,polycrystalline,Park2009JAC,http://dx.doi.org/10.1016/j.jallcom.2009.08.012,x=y,206.97,4,5,20,10.3485,Poeppelmeier,http://dx.doi.org/10.1016/0022-4596(82)90292-4,35218,0.04599557088,62,8
,44,700,0.0001250201455,-0.000164082,1.8785,0.0802469847,0.000164082,0.1507439608,0.0002153485154,Ca0.96Bi0.04Mn0.96Nb0.04O3,Ca1-xBixMn1-yNbyO3,0.04,CaMnO3,7998.710896,Solid state reaction,polycrystalline,Park2009JAC,http://dx.doi.org/10.1016/j.jallcom.2009.08.012,x=y,206.97,4,5,20,10.3485,Poeppelmeier,http://dx.doi.org/10.1016/0022-4596(82)90292-4,35218,0.07272716641,62,8
,45,1000,0.0001454554506,-0.000172301,1.6869,0.1209918892,0.000172301,0.2041012178,0.0002041012178,Ca0.9Bi0.1Mn0.9Nb0.1O3,Ca1-xBixMn1-yNbyO3,0.1,CaMnO3,6874.957219,Solid state reaction,polycrystalline,Park2009JAC,http://dx.doi.org/10.1016/j.jallcom.2009.08.012,"Extrapolated from 972 K, x=y",206.97,4,5,20,10.3485,Poeppelmeier,http://dx.doi.org/10.1016/0022-4596(82)90292-4,35218,0.09944214603,62,8
,46,300,0.00007325377328,-0.0000722292,,,0.0000722292,0.02136568711,0.00007121895704,Ca0.9Bi0.1Mn0.9Nb0.1O3,Ca1-xBixMn1-yNbyO3,0.1,CaMnO3,13651.17393,Solid state reaction,polycrystalline,Park2009JAC,http://dx.doi.org/10.1016/j.jallcom.2009.08.012,"Extrapolated from 325 K, x=y",206.97,4,5,20,10.3485,Poeppelmeier,http://dx.doi.org/10.1016/0022-4596(82)90292-4,35218,,62,8
,47,400,0.00007257716503,-0.0000724358,,,0.0000724358,0.02891788413,0.00007229471032,Ca0.9Bi0.1Mn0.9Nb0.1O3,Ca1-xBixMn1-yNbyO3,0.1,CaMnO3,13778.43843,Solid state reaction,polycrystalline,Park2009JAC,http://dx.doi.org/10.1016/j.jallcom.2009.08.012,x=y,206.97,4,5,20,10.3485,Poeppelmeier,http://dx.doi.org/10.1016/0022-4596(82)90292-4,35218,,62,8
,48,700,0.00007633259027,-0.0000806522,,,0.0000806522,0.05965137747,0.00008521625352,Ca0.9Bi0.1Mn0.9Nb0.1O3,Ca1-xBixMn1-yNbyO3,0.1,CaMnO3,13100.56421,Solid state reaction,polycrystalline,Park2009JAC,http://dx.doi.org/10.1016/j.jallcom.2009.08.012,x=y,206.97,4,5,20,10.3485,Poeppelmeier,http://dx.doi.org/10.1016/0022-4596(82)90292-4,35218,,62,8
,49,1000,0.00008303286055,-0.0000926656,,,0.0000926656,0.1034158448,0.0001034158448,Ca0.9Bi0.1Mn0.9Nb0.1O3,Ca1-xBixMn1-yNbyO3,0.1,CaMnO3,12043.42466,Solid state reaction,polycrystalline,Park2009JAC,http://dx.doi.org/10.1016/j.jallcom.2009.08.012,"Extrapolated from 972 K, x=y",206.97,4,5,20,10.3485,Poeppelmeier,http://dx.doi.org/10.1016/0022-4596(82)90292-4,35218,,62,8
,50,300,0.0002,-0.00018,2.5,0.01944,0.00018,0.0486,0.000162,CaMn0.98Nb0.02O3,CaMn1-xNbxO3,0.02,CaMnO3,5000,Ultrasonic Spray Pyrolysis,polycrystalline,Populoh2011JMR,http://dx.doi.org/10.1557/jmr.2011.140,<200 nm crystal size,208.21,4,5,20,10.4105,Bocher,http://dx.doi.org/10.1016/j.actamat.2009.07.062,166044,0.01464,62,8
,51,400,0.000215409,-0.000203876,2.07513,0.03719487009,0.000203876,0.07718419077,0.0001929604769,CaMn0.98Nb0.02O3,CaMn1-xNbxO3,0.02,CaMnO3,4642.331565,Ultrasonic Spray Pyrolysis,polycrystalline,Populoh2011JMR,http://dx.doi.org/10.1557/jmr.2011.140,<200 nm crystal size,208.21,4,5,20,10.4105,Bocher,http://dx.doi.org/10.1016/j.actamat.2009.07.062,166044,0.02183436993,62,8
,52,700,0.00028358,-0.000234574,1.63069,0.08329343661,0.000234574,0.1358257741,0.0001940368202,CaMn0.98Nb0.02O3,CaMn1-xNbxO3,0.02,CaMnO3,3526.341773,Ultrasonic Spray Pyrolysis,polycrystalline,Populoh2011JMR,http://dx.doi.org/10.1557/jmr.2011.140,<200 nm crystal size,208.21,4,5,20,10.4105,Bocher,http://dx.doi.org/10.1016/j.actamat.2009.07.062,166044,0.03693523446,62,8
,53,1000,0.000308794,-0.000248217,1.38075,0.1445037573,0.000248217,0.1995235629,0.0001995235629,CaMn0.98Nb0.02O3,CaMn1-xNbxO3,0.02,CaMnO3,3238.404891,Ultrasonic Spray Pyrolysis,polycrystalline,Populoh2011JMR,http://dx.doi.org/10.1557/jmr.2011.140,<200 nm crystal size,208.21,4,5,20,10.4105,Bocher,http://dx.doi.org/10.1016/j.actamat.2009.07.062,166044,0.05722765117,62,8
,54,400,0.000183658,-0.000153655,,,0.000153655,0.05142135714,0.0001285533929,CaMn0.98Ru0.02O3,CaMn1-xRuxO3,0.02,CaMnO3,5444.903026,Solid state reaction,polycrystalline,Zhou2003MRB,http://dx.doi.org/10.1016/S0025-5408(02)00997-2,"Seebeck extrapolated from 500 K, Ru content dampens Seebeck (bad), but increases conductivity (good)",208.21,4,5,20,10.4105,Bocher,http://dx.doi.org/10.1016/j.actamat.2009.07.062,166044,,62,8
,55,700,0.000241829,-0.000195784,,,0.000195784,0.1109542787,0.0001585061124,CaMn0.98Ru0.02O3,CaMn1-xRuxO3,0.02,CaMnO3,4135.153352,Solid state reaction,polycrystalline,Zhou2003MRB,http://dx.doi.org/10.1016/S0025-5408(02)00997-2,"Ru content dampens Seebeck (bad), but increases conductivity (good)",208.21,4,5,20,10.4105,Bocher,http://dx.doi.org/10.1016/j.actamat.2009.07.062,166044,,62,8