# Outliers,Original Index,Temperature (K),Electrical Resistivity (Ohm m),Seebeck Coefficient (V/K),Thermal Conductivity (W/(m K)),Figure of Merit,Thermopower (V/K),Thermal Conductivity x Figure of Merit (W/m K),Power Factor (W/(K^2 m)),Formula,Series,Series Index,Family,Electrical Conductivity (S/m),Preparative Route,Final Form,Authors,DOI,Comments,Cell Volume (A^3),Formula Units per Cell,Atoms per Formula Unit,Total Atoms Per Unit Cell,Average Atomic Volume,Author of Unit Cell,Unit Cell DOI,ICSD ID,Electronic over Total Thermal Conductivity,Space Group,Number of Symmetry Elements
,447,300,0.0000955255,-0.0000325663,1.9,0.001753013145,0.0000325663,0.003330724976,0.00001110241659,Sm0.5Ca0.5MnO3,Sm1-xCaxMnO3,0.5,CaMnO3,10468.40896,"solid state reaction, air",polycrystalline,Hejtmanek1999PRB,http://dx.doi.org/10.1103/PhysRevB.60.14057,,219.13,4,5,20,10.9565,Woodward,http://dx.doi.org/10.1021/cm980397u,85652,0.04033092294,62,8
,448,300,0.000285342,-0.000357564,16.23,0.008282178913,0.000357564,0.1344197638,0.0004480658792,CaMnO3,Sm1-xCaxMnO3,1,CaMnO3,3504.56645,"solid state reaction, air",polycrystalline,Hejtmanek1999PRB,http://dx.doi.org/10.1103/PhysRevB.60.14057,,206.97,4,5,20,10.3485,Poeppelmeier,http://dx.doi.org/10.1016/0022-4596(82)90292-4,35218,0.00158061777,62,8
,449,300,0.0000105,-0.000133,7.98,0.06333333333,0.000133,0.5054,0.001684666667,ZrNi1.98Cu0.02Sn,ZrNi1-x-yCoxCuySn,y0.02,ZrNiSn,95238.09524,"arc melted, Ar",polycrystalline,Katsumyama2004JAC,http://dx.doi.org/10.1016/j.jallcom.2004.02.061,*kappa extrapolated from 375 K,228.44,4,3,12,19.03666667,Jeitschko,http://dx.doi.org/10.1007/BF03038432,105382,0.08736126029,216,96
,450,400,0.00001169,-0.000136,6.795,0.09313948577,0.000136,0.6328828058,0.001582207015,ZrNi1.98Cu0.02Sn,ZrNi1-x-yCoxCuySn,y0.02,ZrNiSn,85543.19932,"arc melted, Ar",polycrystalline,Katsumyama2004JAC,http://dx.doi.org/10.1016/j.jallcom.2004.02.061,,228.44,4,3,12,19.03666667,Jeitschko,http://dx.doi.org/10.1007/BF03038432,105382,0.1228699964,216,96
,451,300,0.0000876,-0.000095,6.02,0.005134141901,0.000095,0.03090753425,0.0001030251142,ZrNi0.76Co0.004Cu0.2Sn,ZrNi1-x-yCoxCuySn,x0.004y0.06,ZrNiSn,11415.52511,"arc melted, Ar",polycrystalline,Katsumyama2004JAC,http://dx.doi.org/10.1016/j.jallcom.2004.02.061,,228.44,4,3,12,19.03666667,Jeitschko,http://dx.doi.org/10.1007/BF03038432,105382,0.01388067173,216,96
,452,400,0.0000695,-0.00013,5.3,0.01835211076,0.00013,0.09726618705,0.0002431654676,ZrNi0.76Co0.004Cu0.2Sn,ZrNi1-x-yCoxCuySn,0.005,ZrNiSn,14388.48921,"arc melted, Ar",polycrystalline,Katsumyama2004JAC,http://dx.doi.org/10.1016/j.jallcom.2004.02.061,,228.44,4,3,12,19.03666667,Jeitschko,http://dx.doi.org/10.1007/BF03038432,105382,0.02649653862,216,96
,453,300,0.00000598,-0.000113,8.5,0.07536297462,0.000113,0.6405852843,0.002135284281,ZrNiSn0.98Sb0.02,Zr1-xYxNiSn1-ySby,x0y0.02,ZrNiSn,167224.0803,"arc melted, Ar",polycrystalline,Katsumyama2007JAC,http://dx.doi.org/10.1016/j.jallcom.2006.02.075,*extrapolated from 350 K,228.44,4,3,12,19.03666667,Jeitschko,http://dx.doi.org/10.1007/BF03038432,105382,0.1440094432,216,96
,454,400,0.00000624,-0.000137,7.95,0.1513384938,0.000137,1.203141026,0.003007852564,ZrNiSn0.98Sb0.02,Zr1-xYxNiSn1-ySby,x0y0.02,ZrNiSn,160256.4103,"arc melted, Ar",polycrystalline,Katsumyama2007JAC,http://dx.doi.org/10.1016/j.jallcom.2006.02.075,,228.44,4,3,12,19.03666667,Jeitschko,http://dx.doi.org/10.1007/BF03038432,105382,0.1967424609,216,96
,455,300,0.00000771,-0.000092,8.35,0.03944173909,0.000092,0.3293385214,0.001097795071,Zr0.94Y0.06NiSn0.96Sb0.04,Zr1-xYxNiSn1-ySby,x0.06y0.04,ZrNiSn,129701.6861,"arc melted, Ar",polycrystalline,Katsumyama2007JAC,http://dx.doi.org/10.1016/j.jallcom.2006.02.075,*extrapolated from 350 K,228.44,4,3,12,19.03666667,Jeitschko,http://dx.doi.org/10.1007/BF03038432,105382,0.113702556,216,96
,456,400,0.00000788,-0.000109,6.51,0.09264154327,0.000109,0.6030964467,0.001507741117,Zr0.94Y0.06NiSn0.96Sb0.04,Zr1-xYxNiSn1-ySby,x0.06y0.04,ZrNiSn,126903.5533,"arc melted, Ar",polycrystalline,Katsumyama2007JAC,http://dx.doi.org/10.1016/j.jallcom.2006.02.075,,228.44,4,3,12,19.03666667,Jeitschko,http://dx.doi.org/10.1007/BF03038432,105382,0.1902578618,216,96
,457,300,0.0000122831,-0.000119188,6.90444,0.05025159741,0.000119188,0.3469591392,0.001156530464,NbCoSn,NbCoxSn,1,NbCoSn,81412.6727,Floating zone melting,single crystal,Kimura2008APL,http://dx.doi.org/10.1063/1.2828713,,210.86,4,3,12,17.57166667,Skolozdra,http://dx.doi.org/10.1016/0304-8853(93)90861-U,102553,0.08631268635,216,96
,458,400,0.0000141493,-0.000137005,7.9584,0.06667639443,0.000137005,0.5306374174,0.001326593543,NbCoSn,NbCoxSn,1,NbCoSn,70674.87438,Floating zone melting,single crystal,Kimura2008APL,http://dx.doi.org/10.1063/1.2828713,,210.86,4,3,12,17.57166667,Skolozdra,http://dx.doi.org/10.1016/0304-8853(93)90861-U,102553,0.08667405181,216,96
,459,700,0.0000203039,-0.000168074,9.74108,0.09997986273,0.000168074,0.9739118412,0.00139130263,NbCoSn,NbCoxSn,1,NbCoSn,49251.62161,Floating zone melting,single crystal,Kimura2008APL,http://dx.doi.org/10.1063/1.2828713,,210.86,4,3,12,17.57166667,Skolozdra,http://dx.doi.org/10.1016/0304-8853(93)90861-U,102553,0.08635774443,216,96
,460,1000,0.0000259029,-0.00017753,9.92664,0.1225724439,0.00017753,1.216732524,0.001216732524,NbCoSn,NbCoxSn,1,NbCoSn,38605.71596,Floating zone melting,single crystal,Kimura2008APL,http://dx.doi.org/10.1063/1.2828713,,210.86,4,3,12,17.57166667,Skolozdra,http://dx.doi.org/10.1016/0304-8853(93)90861-U,102553,0.09489408999,216,96
,461,300,0.0000137411,-0.000163441,6.88672,0.0846855574,0.000163441,0.5832057218,0.001944019073,NbCo1.05Sn,NbCoxSn,1.05,NbCoSn,72774.3776,Floating zone melting,single crystal,Kimura2008APL,http://dx.doi.org/10.1063/1.2828713,,210.86,4,3,12,17.57166667,Skolozdra,http://dx.doi.org/10.1016/0304-8853(93)90861-U,102553,0.07735299882,216,96
,462,400,0.000016302,-0.000185373,7.00955,0.120287894,0.000185373,0.8431640076,0.002107910019,NbCo1.05Sn,NbCoxSn,1.05,NbCoSn,61342.16661,Floating zone melting,single crystal,Kimura2008APL,http://dx.doi.org/10.1063/1.2828713,,210.86,4,3,12,17.57166667,Skolozdra,http://dx.doi.org/10.1016/0304-8853(93)90861-U,102553,0.08541198024,216,96
,463,700,0.0000233598,-0.000236772,7.2322,0.2322839365,0.000236772,1.679923886,0.002399891266,NbCo1.05Sn,NbCoxSn,1.05,NbCoSn,42808.58569,Floating zone melting,single crystal,Kimura2008APL,http://dx.doi.org/10.1063/1.2828713,,210.86,4,3,12,17.57166667,Skolozdra,http://dx.doi.org/10.1016/0304-8853(93)90861-U,102553,0.1010993396,216,96
,464,1000,0.0000297916,-0.00025086,7.6719,0.2753379498,0.00025086,2.112365217,0.002112365217,NbCo1.05Sn,NbCoxSn,1.05,NbCoSn,33566.50868,Floating zone melting,single crystal,Kimura2008APL,http://dx.doi.org/10.1063/1.2828713,,210.86,4,3,12,17.57166667,Skolozdra,http://dx.doi.org/10.1016/0304-8853(93)90861-U,102553,0.1067561897,216,96
,465,300,0.0000111024,-0.000130766,5.80227,0.0796335596,0.000130766,0.4620554139,0.001540184713,NbCo1.10Sn,NbCoxSn,1.1,NbCoSn,90070.61536,Floating zone melting,single crystal,Kimura2008APL,http://dx.doi.org/10.1063/1.2828713,,210.86,4,3,12,17.57166667,Skolozdra,http://dx.doi.org/10.1016/0304-8853(93)90861-U,102553,0.1136308556,216,96
,466,400,0.0000129687,-0.000151928,5.83,0.1221154556,0.000151928,0.7119331061,0.001779832765,NbCo1.10Sn,NbCoxSn,1.1,NbCoSn,77108.73102,Floating zone melting,single crystal,Kimura2008APL,http://dx.doi.org/10.1063/1.2828713,,210.86,4,3,12,17.57166667,Skolozdra,http://dx.doi.org/10.1016/0304-8853(93)90861-U,102553,0.1290876869,216,96
,467,700,0.000018429,-0.000189172,6.23152,0.2181302954,0.000189172,1.359283299,0.001941833284,NbCo1.10Sn,NbCoxSn,1.1,NbCoSn,54262.30398,Floating zone melting,single crystal,Kimura2008APL,http://dx.doi.org/10.1063/1.2828713,,210.86,4,3,12,17.57166667,Skolozdra,http://dx.doi.org/10.1016/0304-8853(93)90861-U,102553,0.1487277826,216,96
,468,1000,0.0000242362,-0.0001994,6.77258,0.2422320678,0.0001994,1.640536058,0.001640536058,NbCo1.10Sn,NbCoxSn,1.1,NbCoSn,41260.59366,Floating zone melting,single crystal,Kimura2008APL,http://dx.doi.org/10.1063/1.2828713,,210.86,4,3,12,17.57166667,Skolozdra,http://dx.doi.org/10.1016/0304-8853(93)90861-U,102553,0.1486521363,216,96
,469,300,0.00000146517,-0.00001817146,8.118681,0.008327744733,0.00001817146,0.06761030294,0.0002253676765,NbCo2Sn,NbCoxSn,2,NbCoSn,,Floating zone melting,single crystal,Kimura2008APL,http://dx.doi.org/10.1063/1.2828713,,,,,,,,,,0.6153717937,,
,470,300,0.00000160849,-0.0000813436,,,0.0000813436,1.234098054,0.004113660179,Bi92Sb8,Bi100-xSbx,8,Bi-Sb,,"melted, vacuum",polcrystalline,Kitagawa2004JPCS,http://dx.doi.org/10.1016/j.jpcs.2004.01.010,,195.59,6,1,6,32.59833333,Ehret,http://dx.doi.org/10.1021/ja01317a031,617054,,166,12
,471,400,0.00000155432,-0.0000692991,,,0.0000692991,1.235875563,0.003089688906,Bi92Sb8,Bi100-xSbx,8,Bi-Sb,,"melted, vacuum",polcrystalline,Kitagawa2004JPCS,http://dx.doi.org/10.1016/j.jpcs.2004.01.010,,195.59,6,1,6,32.59833333,Ehret,http://dx.doi.org/10.1021/ja01317a031,617054,,166,12
,472,300,0.00000182312,-0.0000807513,,,0.0000807513,1.073013151,0.003576710503,Bi90Sb10,Bi100-xSbx,10,Bi-Sb,,"melted, vacuum",polcrystalline,Kitagawa2004JPCS,http://dx.doi.org/10.1016/j.jpcs.2004.01.010,,195.59,6,1,6,32.59833333,Ehret,http://dx.doi.org/10.1021/ja01317a031,617054,,166,12
,473,400,0.00000180761,-0.0000685094,,,0.0000685094,1.038617376,0.00259654344,Bi90Sb10,Bi100-xSbx,10,Bi-Sb,,"melted, vacuum",polcrystalline,Kitagawa2004JPCS,http://dx.doi.org/10.1016/j.jpcs.2004.01.010,,195.59,6,1,6,32.59833333,Ehret,http://dx.doi.org/10.1021/ja01317a031,617054,,166,12
,474,300,0.00000172072,-0.0000852915,,,0.0000852915,1.268301636,0.004227672121,Bi88Sb12,Bi100-xSbx,12,Bi-Sb,,"melted, vacuum",polcrystalline,Kitagawa2004JPCS,http://dx.doi.org/10.1016/j.jpcs.2004.01.010,,195.59,6,1,6,32.59833333,Ehret,http://dx.doi.org/10.1021/ja01317a031,617054,,166,12
,475,400,0.00000167887,-0.0000728522,,,0.0000728522,1.264527461,0.003161318652,Bi88Sb12,Bi100-xSbx,12,Bi-Sb,,"melted, vacuum",polcrystalline,Kitagawa2004JPCS,http://dx.doi.org/10.1016/j.jpcs.2004.01.010,,195.59,6,1,6,32.59833333,Ehret,http://dx.doi.org/10.1021/ja01317a031,617054,,166,12
,476,300,0.00000256248,-0.0000813443,,,0.0000813443,0.7746669409,0.002582223136,Bi86Sb14,Bi100-xSbx,14,Bi-Sb,,"melted, vacuum",polcrystalline,Kitagawa2004JPCS,http://dx.doi.org/10.1016/j.jpcs.2004.01.010,,195.59,6,1,6,32.59833333,Ehret,http://dx.doi.org/10.1021/ja01317a031,617054,,166,12
,477,400,0.00000292608,-0.0000691017,,,0.0000691017,0.6527565812,0.001631891453,Bi86Sb14,Bi100-xSbx,14,Bi-Sb,,"melted, vacuum",polcrystalline,Kitagawa2004JPCS,http://dx.doi.org/10.1016/j.jpcs.2004.01.010,,195.59,6,1,6,32.59833333,Ehret,http://dx.doi.org/10.1021/ja01317a031,617054,,166,12
,478,300,0.00000259558,-0.0000752246,,,0.0000752246,0.6540434637,0.002180144879,Bi83Sb17,Bi100-xSbx,17,Bi-Sb,,"melted, vacuum",polcrystalline,Kitagawa2004JPCS,http://dx.doi.org/10.1016/j.jpcs.2004.01.010,,195.59,6,1,6,32.59833333,Ehret,http://dx.doi.org/10.1021/ja01317a031,617054,,166,12
,479,400,0.00000285183,-0.0000615956,,,0.0000615956,0.5321520482,0.001330380121,Bi83Sb17,Bi100-xSbx,17,Bi-Sb,,"melted, vacuum",polcrystalline,Kitagawa2004JPCS,http://dx.doi.org/10.1016/j.jpcs.2004.01.010,,195.59,6,1,6,32.59833333,Ehret,http://dx.doi.org/10.1021/ja01317a031,617054,,166,12
,480,700,0.0008931,0.00000802541,,,0.00000802541,0.00005048151827,0.00000007211645467,CaMn7O12,Ca(Mn3-xCux)Mn4O12,0,CaMnO3,,"solid state reaction, air",polycrystalline,Kobayashi2004JAP,http://dx.doi.org/10.1063/1.1687532,,598.91,3,20,60,9.981833333,Bochu,http://dx.doi.org/10.1016/0038-1098(80)90668-7,200971,,194,24
,481,1000,0.000405007,-0.0000201644,,,0.0000201644,0.00100394074,0.00000100394074,CaMn7O12,Ca(Mn3-xCux)Mn4O12,0,CaMnO3,,"solid state reaction, air",polycrystalline,Kobayashi2004JAP,http://dx.doi.org/10.1063/1.1687532,,598.91,3,20,60,9.981833333,Bochu,http://dx.doi.org/10.1016/0038-1098(80)90668-7,200971,,194,24
,482,300,0.00513021,0.0000325598,,,0.0000325598,0.00006199398715,0.0000002066466238,CaMn6.5Cu0.5O12,Ca(Mn3-xCux)Mn4O12,0.5,CaMnO3,,"solid state reaction, air",polycrystalline,Kobayashi2004JAP,http://dx.doi.org/10.1063/1.1687532,,598.91,3,20,60,9.981833333,Bochu,http://dx.doi.org/10.1016/0038-1098(80)90668-7,200971,,194,24
,483,400,0.00172634,0.00000929006,,,0.00000929006,0.00001999726932,0.00000004999317331,CaMn6.5Cu0.5O12,Ca(Mn3-xCux)Mn4O12,0.5,CaMnO3,,"solid state reaction, air",polycrystalline,Kobayashi2004JAP,http://dx.doi.org/10.1063/1.1687532,,598.91,3,20,60,9.981833333,Bochu,http://dx.doi.org/10.1016/0038-1098(80)90668-7,200971,,194,24
,484,700,0.000500867,-0.0000153459,,,0.0000153459,0.0003291246035,0.000000470178005,CaMn6.5Cu0.5O12,Ca(Mn3-xCux)Mn4O12,0.5,CaMnO3,,"solid state reaction, air",polycrystalline,Kobayashi2004JAP,http://dx.doi.org/10.1063/1.1687532,,598.91,3,20,60,9.981833333,Bochu,http://dx.doi.org/10.1016/0038-1098(80)90668-7,200971,,194,24
,485,1000,0.000281389,-0.0000243591,,,0.0000243591,0.002108702731,0.000002108702731,CaMn6.5Cu0.5O12,Ca(Mn3-xCux)Mn4O12,0.5,CaMnO3,,"solid state reaction, air",polycrystalline,Kobayashi2004JAP,http://dx.doi.org/10.1063/1.1687532,,598.91,3,20,60,9.981833333,Bochu,http://dx.doi.org/10.1016/0038-1098(80)90668-7,200971,,194,24
,486,300,0.00247652,-0.0000131349,,,0.0000131349,0.00002089935854,0.00000006966452846,CaMn6CuO12,Ca(Mn3-xCux)Mn4O12,1,CaMnO3,,"solid state reaction, air",polycrystalline,Kobayashi2004JAP,http://dx.doi.org/10.1063/1.1687532,,598.91,3,20,60,9.981833333,Bochu,http://dx.doi.org/10.1016/0038-1098(80)90668-7,200971,,194,24
,487,400,0.00101057,-0.000019922,,,0.000019922,0.0001570939505,0.0000003927348764,CaMn6CuO12,Ca(Mn3-xCux)Mn4O12,1,CaMnO3,,"solid state reaction, air",polycrystalline,Kobayashi2004JAP,http://dx.doi.org/10.1063/1.1687532,,598.91,3,20,60,9.981833333,Bochu,http://dx.doi.org/10.1016/0038-1098(80)90668-7,200971,,194,24
,488,700,0.000326349,-0.0000273305,,,0.0000273305,0.00160217853,0.000002288826472,CaMn6CuO12,Ca(Mn3-xCux)Mn4O12,1,CaMnO3,,"solid state reaction, air",polycrystalline,Kobayashi2004JAP,http://dx.doi.org/10.1063/1.1687532,,598.91,3,20,60,9.981833333,Bochu,http://dx.doi.org/10.1016/0038-1098(80)90668-7,200971,,194,24
,489,1000,0.000204067,-0.0000302012,,,0.0000302012,0.004469671635,0.000004469671635,CaMn6CuO12,Ca(Mn3-xCux)Mn4O12,1,CaMnO3,,"solid state reaction, air",polycrystalline,Kobayashi2004JAP,http://dx.doi.org/10.1063/1.1687532,,598.91,3,20,60,9.981833333,Bochu,http://dx.doi.org/10.1016/0038-1098(80)90668-7,200971,,194,24
# outlier in rho,490,300,17.2091,-0.0000556808,,,0.0000556808,0.00000005404730326,0.0000000001801576775,LiMn2O4,LiMn2O4,,LiMn2O4,,"solid state reaction, air",polycrystalline,Kobayashi2004JAP,http://dx.doi.org/10.1063/1.1687532,,555.64,8,7,56,9.922142857,Berg,http://dx.doi.org/10.1016/S0167-2738(99)00235-0,89459,,227,192
,491,400,0.740928,-0.0000459919,,,0.0000459919,0.000001141948943,0.000000002854872357,LiMn2O4,LiMn2O4,,LiMn2O4,,"solid state reaction, air",polycrystalline,Kobayashi2004JAP,http://dx.doi.org/10.1063/1.1687532,,555.64,8,7,56,9.922142857,Berg,http://dx.doi.org/10.1016/S0167-2738(99)00235-0,89459,,227,192
,492,700,0.0116732,-0.0000301768,,,0.0000301768,0.00005460777514,0.00000007801110734,LiMn2O4,LiMn2O4,,LiMn2O4,,"solid state reaction, air",polycrystalline,Kobayashi2004JAP,http://dx.doi.org/10.1063/1.1687532,,555.64,8,7,56,9.922142857,Berg,http://dx.doi.org/10.1016/S0167-2738(99)00235-0,89459,,227,192
,493,1000,0.00261071,-0.0000194145,,,0.0000194145,0.0001443755952,0.0000001443755952,LiMn2O4,LiMn2O4,,LiMn2O4,,"solid state reaction, air",polycrystalline,Kobayashi2004JAP,http://dx.doi.org/10.1063/1.1687532,,555.64,8,7,56,9.922142857,Berg,http://dx.doi.org/10.1016/S0167-2738(99)00235-0,89459,,227,192
,494,300,0.000552875,-0.0000222738,,,0.0000222738,0.0002692048834,0.0000008973496115,Pr0.5Ca0.5MnO3,PrxCa1-xMnO3,0.5,CaMnO3,,"solid state reaction, air",polycrystalline,Kobayashi2004JAP,http://dx.doi.org/10.1063/1.1687532,,221.92,4,5,20,11.096,Woodward,http://dx.doi.org/10.1021/cm980397u,85650,,62,8
,495,400,0.000298067,-0.0000227685,,,0.0000227685,0.000695688677,0.000001739221693,Pr0.5Ca0.5MnO3,PrxCa1-xMnO3,0.5,CaMnO3,,"solid state reaction, air",polycrystalline,Kobayashi2004JAP,http://dx.doi.org/10.1063/1.1687532,,221.92,4,5,20,11.096,Woodward,http://dx.doi.org/10.1021/cm980397u,85650,,62,8
,496,700,0.000160953,-0.0000234352,,,0.0000234352,0.002388560756,0.000003412229651,Pr0.5Ca0.5MnO3,PrxCa1-xMnO3,0.5,CaMnO3,,"solid state reaction, air",polycrystalline,Kobayashi2004JAP,http://dx.doi.org/10.1063/1.1687532,,221.92,4,5,20,11.096,Woodward,http://dx.doi.org/10.1021/cm980397u,85650,,62,8
,497,1000,0.000127386,-0.0000237587,,,0.0000237587,0.004431223413,0.000004431223413,Pr0.5Ca0.5MnO3,PrxCa1-xMnO3,0.5,CaMnO3,,"solid state reaction, air",polycrystalline,Kobayashi2004JAP,http://dx.doi.org/10.1063/1.1687532,,221.92,4,5,20,11.096,Woodward,http://dx.doi.org/10.1021/cm980397u,85650,,62,8
,498,300,0.00000711,0.00000408735,3.81187,0.0001849256819,0.00000408735,0.0007049126592,0.000002349708864,Mo3Te4,Mo6Te8-xSx,0,Mo3Te4,,"solid state reaction, vacuum",polycrystalline,Kurosaki2003JACa,http://dx.doi.org/10.1016/S0925-8388(02)01002-2,,1039.77,6,7,42,24.75642857,Bars,http://dx.doi.org/10.1016/S0925-8388(02)01002-2,644477,0.2700868248,148,6
,499,400,0.0000072,0.00000750989,3.91172,0.000800989616,0.00000750989,0.003133247101,0.000007833117752,Mo3Te4,Mo6Te8-xSx,0,Mo3Te4,,"solid state reaction, vacuum",polycrystalline,Kurosaki2003JACa,http://dx.doi.org/10.1016/S0925-8388(02)01002-2,,1039.77,6,7,42,24.75642857,Bars,http://dx.doi.org/10.1016/S0925-8388(02)01002-2,644477,0.3465369596,148,6
,500,700,0.00000715,0.0000165599,4.45197,0.006030525925,0.0000165599,0.0268477205,0.00003835388643,Mo3Te4,Mo6Te8-xSx,0,Mo3Te4,,"solid state reaction, vacuum",polycrystalline,Kurosaki2003JACa,http://dx.doi.org/10.1016/S0925-8388(02)01002-2,,1039.77,6,7,42,24.75642857,Bars,http://dx.doi.org/10.1016/S0925-8388(02)01002-2,644477,0.5365739636,148,6
,501,1000,0.00000723,0.0000239118,5.29114,0.01494641336,0.0000239118,0.07908356559,0.00007908356559,Mo3Te4,Mo6Te8-xSx,0,Mo3Te4,,"solid state reaction, vacuum",polycrystalline,Kurosaki2003JACa,http://dx.doi.org/10.1016/S0925-8388(02)01002-2,,1039.77,6,7,42,24.75642857,Bars,http://dx.doi.org/10.1016/S0925-8388(02)01002-2,644477,0.6378260846,148,6
,502,300,0.00000767,0.00000334933,2.77301,0.0001582305486,0.00000334933,0.0004387748937,0.000001462582979,Mo6Te7S,Mo6Te8-xSx,1,Mo3Te4,,"solid state reaction, vacuum",polycrystalline,Kurosaki2003JACa,http://dx.doi.org/10.1016/S0925-8388(02)01002-2,,1039.77,6,7,42,24.75642857,Bars,http://dx.doi.org/10.1016/S0925-8388(02)01002-2,644477,0.3441630814,148,6
,503,400,0.00000783,0.00000548011,3.09729,0.0004953303179,0.00000548011,0.00153418164,0.000003835454101,Mo6Te7S,Mo6Te8-xSx,1,Mo3Te4,,"solid state reaction, vacuum",polycrystalline,Kurosaki2003JACa,http://dx.doi.org/10.1016/S0925-8388(02)01002-2,,1039.77,6,7,42,24.75642857,Bars,http://dx.doi.org/10.1016/S0925-8388(02)01002-2,644477,0.4024446749,148,6
,504,700,0.00000817,0.0000139768,3.97842,0.004207080823,0.0000139768,0.01673753449,0.00002391076355,Mo6Te7S,Mo6Te8-xSx,1,Mo3Te4,,"solid state reaction, vacuum",polycrystalline,Kurosaki2003JACa,http://dx.doi.org/10.1016/S0925-8388(02)01002-2,,1039.77,6,7,42,24.75642857,Bars,http://dx.doi.org/10.1016/S0925-8388(02)01002-2,644477,0.5254787769,148,6
,505,1000,0.00000833,0.0000211078,4.60973,0.01160287065,0.0000211078,0.05348610094,0.00005348610094,Mo6Te7S,Mo6Te8-xSx,1,Mo3Te4,,"solid state reaction, vacuum",polycrystalline,Kurosaki2003JACa,http://dx.doi.org/10.1016/S0925-8388(02)01002-2,,1039.77,6,7,42,24.75642857,Bars,http://dx.doi.org/10.1016/S0925-8388(02)01002-2,644477,0.6354323721,148,6