# Outliers,Original Index,Temperature (K),Electrical Resistivity (Ohm m),Seebeck Coefficient (V/K),Thermal Conductivity (W/(m K)),Figure of Merit,Thermopower (V/K),Thermal Conductivity x Figure of Merit (W/m K),Power Factor (W/(K^2 m)),Formula,Series,Series Index,Family,Electrical Conductivity (S/m),Preparative Route,Final Form,Authors,DOI,Comments,Cell Volume (A^3),Formula Units per Cell,Atoms per Formula Unit,Total Atoms Per Unit Cell,Average Atomic Volume,Author of Unit Cell,Unit Cell DOI,ICSD ID,Electronic over Total Thermal Conductivity,Space Group,Number of Symmetry Elements
,801,700,0.00002089296131,-0.000195646,14.3,0.0896817241,0.000195646,1.282448655,0.001832069507,Zn0.95Al0.05O,(Zn1-xAlx)O,0.05,ZnO,,"solid state reaction, air",polycrystalline,Tsubota1997JMC,http://dx.doi.org/10.1039/A602506D,,47.62,2,2,4,11.905,Abrahams,http://dx.doi.org/10.1107/S0567740869003876,26170,0.05369259245,186,12
,802,1000,0.00002818382931,-0.000200026,6.23,0.227868794,0.000200026,1.419622587,0.001419622587,Zn0.95Al0.05O,(Zn1-xAlx)O,0.05,ZnO,,"solid state reaction, air",polycrystalline,Tsubota1997JMC,http://dx.doi.org/10.1039/A602506D,,47.62,2,2,4,11.905,Abrahams,http://dx.doi.org/10.1107/S0567740869003876,26170,0.1301980867,186,12
,803,300,0.05017057997,-0.0000395353,5.88,0.000001589515929,0.0000395353,0.000009346353662,0.00000003115451221,SrNb0.15Ti0.85O3,SrTi1-xNbxO3,0.15,SrTiO3,,"solid state reaction, Ar",polycrystalline,Wang2010JAC,http://dx.doi.org/10.1016/j.jallcom.2010.06.195,,60.64,1,5,5,12.128,Brant,http://dx.doi.org/10.1016/j.jssc.2010.06.002,174464,0.00002481330612,221,48
,804,400,0.003754768556,-0.0000475373,4.696,0.00005126462128,0.0000475373,0.0002407386615,0.0000006018466538,SrNb0.15Ti0.85O3,SrTi1-xNbxO3,0.15,SrTiO3,,"solid state reaction, Ar",polycrystalline,Wang2010JAC,http://dx.doi.org/10.1016/j.jallcom.2010.06.195,,60.64,1,5,5,12.128,Brant,http://dx.doi.org/10.1016/j.jssc.2010.06.002,174464,0.000553526678,221,48
,805,700,0.0005518520154,-0.000099982,3.49,0.003633236094,0.000099982,0.01267999397,0.0000181142771,SrNb0.15Ti0.85O3,SrTi1-xNbxO3,0.15,SrTiO3,,"solid state reaction, Ar",polycrystalline,Wang2010JAC,http://dx.doi.org/10.1016/j.jallcom.2010.06.195,,60.64,1,5,5,12.128,Brant,http://dx.doi.org/10.1016/j.jssc.2010.06.002,174464,0.008868288367,221,48
,806,1000,0.0002442563128,-0.000176694,3.078,0.04152686944,0.000176694,0.1278197041,0.0001278197041,SrNb0.15Ti0.85O3,SrTi1-xNbxO3,0.15,SrTiO3,,"solid state reaction, Ar",polycrystalline,Wang2010JAC,http://dx.doi.org/10.1016/j.jallcom.2010.06.195,,60.64,1,5,5,12.128,Brant,http://dx.doi.org/10.1016/j.jssc.2010.06.002,174464,0.03245453671,221,48
,807,300,0.0000066,-0.000042787,1.7,0.04894992965,0.000042787,0.08321488041,0.0002773829347,Ba8Ga16Ge30,Ba8Ga16Ge30,,Ba8Ga16Ge30,,"Czochralski method, He",single crystal,Toberer2008PRB,http://dx.doi.org/10.1103/PhysRevB.77.075203,,1254.12,1,54,54,23.22444444,Paschen,http://dx.doi.org/10.1103/PhysRevB.64.214404,94298,0.6524064171,223,48
,808,300,0.00000782,-0.00004965,1.52,0.06221705058,0.00004965,0.09456991688,0.0003152330563,Ba8Ga16Ge30,Ba8Ga16Ge30,,Ba8Ga16Ge30,,"solid state reaction, Ar",polycrystalline,Toberer2008PRB,http://dx.doi.org/10.1103/PhysRevB.77.075203,,1254.12,1,54,54,23.22444444,Paschen,http://dx.doi.org/10.1103/PhysRevB.64.214404,94298,0.615829856,223,48
,809,400,0.0000076,-0.00005598,1.63,0.101186968,0.00005598,0.1649347579,0.0004123368947,Ba8Ga16Ge30,Ba8Ga16Ge30,,Ba8Ga16Ge30,,"Czochralski method, He",single crystal,Toberer2008PRB,http://dx.doi.org/10.1103/PhysRevB.77.075203,,1254.12,1,54,54,23.22444444,Paschen,http://dx.doi.org/10.1103/PhysRevB.64.214404,94298,0.7878592186,223,48
,810,400,0.000009,-0.00006216,1.42,0.1209347606,0.00006216,0.17172736,0.0004293184,Ba8Ga16Ge30,Ba8Ga16Ge30,,Ba8Ga16Ge30,,"solid state reaction, Ar",polycrystalline,Toberer2008PRB,http://dx.doi.org/10.1103/PhysRevB.77.075203,,1254.12,1,54,54,23.22444444,Paschen,http://dx.doi.org/10.1103/PhysRevB.64.214404,94298,0.7636932707,223,48
,811,700,0.0000123,-0.00010227,1.62,0.3674298419,0.00010227,0.5952363439,0.0008503376341,Ba8Ga16Ge30,Ba8Ga16Ge30,,Ba8Ga16Ge30,,"Czochralski method, He",single crystal,Toberer2008PRB,http://dx.doi.org/10.1103/PhysRevB.77.075203,,1254.12,1,54,54,23.22444444,Paschen,http://dx.doi.org/10.1103/PhysRevB.64.214404,94298,0.8571715347,223,48
,812,700,0.0000161,-0.00010738,1.3,0.3856342609,0.00010738,0.5013245391,0.000716177913,Ba8Ga16Ge30,Ba8Ga16Ge30,,Ba8Ga16Ge30,,"solid state reaction, Ar",polycrystalline,Toberer2008PRB,http://dx.doi.org/10.1103/PhysRevB.77.075203,,1254.12,1,54,54,23.22444444,Paschen,http://dx.doi.org/10.1103/PhysRevB.64.214404,94298,0.8160535117,223,48
,813,1000,0.0000171,-0.00014198,1.6,0.7367807164,0.00014198,1.178849146,0.001178849146,Ba8Ga16Ge30,Ba8Ga16Ge30,,Ba8Ga16Ge30,,"Czochralski method, He",single crystal,Toberer2008PRB,http://dx.doi.org/10.1103/PhysRevB.77.075203,,1254.12,1,54,54,23.22444444,Paschen,http://dx.doi.org/10.1103/PhysRevB.64.214404,94298,0.8918128655,223,48
,814,1000,0.0000223,-0.0001444,1.26,0.7420940992,0.0001444,0.935038565,0.000935038565,Ba8Ga16Ge30,Ba8Ga16Ge30,,Ba8Ga16Ge30,,"solid state reaction, Ar",polycrystalline,Toberer2008PRB,http://dx.doi.org/10.1103/PhysRevB.77.075203,,1254.12,1,54,54,23.22444444,Paschen,http://dx.doi.org/10.1103/PhysRevB.64.214404,94298,0.8683892092,223,48
,815,300,0.00000774,0.0001053,,,0.0001053,0.4297709302,0.001432569767,CsBi4Te6,CsBi4Te6,,CsBi4Te6,,"melted, air",single crystal,Chung2000S,http://dx.doi.org/10.1126/science.287.5455.1024,,3250.47,8,11,88,36.93715909,Chung,http://dx.doi.org/10.1126/science.287.5455.1024,170576,,12,8
,816,300,0.0000085,0.0001542,1.5,0.5594738824,0.0001542,0.8392108235,0.002797369412,Sb0.005I0.015Cs0.995Bi3.98Te5.97,CsBi4Te6,,CsBi4Te6,,"melted, air",single crystal,Chung2000S,http://dx.doi.org/10.1126/science.287.5455.1024,,3250.47,8,11,88,36.93715909,Chung,http://dx.doi.org/10.1126/science.287.5455.1024,170576,0.5741176471,12,8
,817,300,0.00000662,-0.00005,1.94,0.05839848008,0.00005,0.1132930514,0.0003776435045,Ba8Ga16Ge30,Ba8Ga16Ge30,,Ba8Ga16Ge30,,"Czochralski method, argon",single crystal,Saramat2006,http://dx.doi.org/10.1063/1.2163979,,1254.12,1,54,54,23.22444444,Paschen,http://dx.doi.org/10.1103/PhysRevB.64.214404,94298,0.5699691656,223,48
,818,400,0.00000791,-0.000075,1.79,0.1589106498,0.000075,0.2844500632,0.000711125158,Ba8Ga16Ge30,Ba8Ga16Ge30,,Ba8Ga16Ge30,,"Czochralski method, argon",single crystal,Saramat2006,http://dx.doi.org/10.1063/1.2163979,,1254.12,1,54,54,23.22444444,Paschen,http://dx.doi.org/10.1103/PhysRevB.64.214404,94298,0.6893190855,223,48
,819,700,0.00001418,-0.00015,1.56,0.711999566,0.00015,1.110719323,0.00158674189,Ba8Ga16Ge30,Ba8Ga16Ge30,,Ba8Ga16Ge30,,"Czochralski method, argon",single crystal,Saramat2006,http://dx.doi.org/10.1063/1.2163979,,1254.12,1,54,54,23.22444444,Paschen,http://dx.doi.org/10.1103/PhysRevB.64.214404,94298,0.7721239738,223,48
,820,1000,0.00001996,-0.0002,1.43,1.401404207,0.0002,2.004008016,0.002004008016,Ba8Ga16Ge30,Ba8Ga16Ge30,,Ba8Ga16Ge30,,"Czochralski method, argon",single crystal,Saramat2006,http://dx.doi.org/10.1063/1.2163979,,1254.12,1,54,54,23.22444444,Paschen,http://dx.doi.org/10.1103/PhysRevB.64.214404,94298,0.8548565663,223,48
,821,300,0.0000642,0.000256,0.481,0.6366798142,0.000256,0.3062429907,0.001020809969,Tl9BiTe6,Tl9BiTe6,,Tl9BiTe6,,"melted, zone refined",polycrystalline,Wolfing2001PRL,http://dx.doi.org/10.1103/PhysRevLett.86.4350,,1025.05,2,16,32,32.0328125,Doert,http://dx.doi.org//10.1524/zkri.1994.209.1.95,400246,0.2370450969,140,32
,822,400,0.0001117,0.0003379,0.409,0.9996774455,0.0003379,0.4088680752,0.001022170188,Tl9BiTe6,Tl9BiTe6,,Tl9BiTe6,,"melted, zone refined",polycrystalline,Wolfing2001PRL,http://dx.doi.org/10.1103/PhysRevLett.86.4350,,1025.05,2,16,32,32.0328125,Doert,http://dx.doi.org//10.1524/zkri.1994.209.1.95,400246,0.2136354582,140,32
,823,300,0.00000324,-0.0000413,2.94,0.0537191358,0.0000413,0.1579342593,0.0005264475309,Bi1.2S1.2Ti2S4,(Pb/Bi/Sn)S-(TiS2)2,,(Pb/Bi/Sn)S-(TiS2)2,,"solid-liquid-vapor reaction, vacuum",polycrystalline,Wan2010M,http://dx.doi.org/10.3390/ma3042606,,175.2,1,8.4,8.4,20.85714286,Wan,http://dx.doi.org/10.3390/ma3042606,none,0.7684555304,,
,824,400,0.00000499,-0.00005485,2.41,0.100068103,0.00005485,0.2411641283,0.0006029103206,Bi1.2S1.2Ti2S4,(Pb/Bi/Sn)S-(TiS2)2,,(Pb/Bi/Sn)S-(TiS2)2,,"solid-liquid-vapor reaction, vacuum",polycrystalline,Wan2010M,http://dx.doi.org/10.3390/ma3042606,,175.2,1,8.4,8.4,20.85714286,Wan,http://dx.doi.org/10.3390/ma3042606,none,0.8115816696,,
,825,700,0.00000948,-0.00008912,2.11,0.2779441918,0.00008912,0.5864622447,0.0008378032068,Bi1.2S1.2Ti2S4,(Pb/Bi/Sn)S-(TiS2)2,,(Pb/Bi/Sn)S-(TiS2)2,,"solid-liquid-vapor reaction, vacuum",polycrystalline,Wan2010M,http://dx.doi.org/10.3390/ma3042606,,175.2,1,8.4,8.4,20.85714286,Wan,http://dx.doi.org/10.3390/ma3042606,none,0.8538804567,,
,826,300,0.0000046,-0.0000508,2.9,0.05803538231,0.0000508,0.1683026087,0.0005610086957,Pb1.8S1.8Ti2S4,(Pb/Bi/Sn)S-(TiS2)2,,(Pb/Bi/Sn)S-(TiS2)2,,"solid-liquid-vapor reaction, vacuum",polycrystalline,Wan2010M,http://dx.doi.org/10.3390/ma3042606,,175.2,1,8.4,8.4,20.85714286,Wan,http://dx.doi.org/10.3390/ma3042606,none,0.5487256372,,
,827,400,0.00000728,-0.0000708,2.51,0.1097289961,0.0000708,0.2754197802,0.0006885494505,Pb1.8S1.8Ti2S4,(Pb/Bi/Sn)S-(TiS2)2,,(Pb/Bi/Sn)S-(TiS2)2,,"solid-liquid-vapor reaction, vacuum",polycrystalline,Wan2010M,http://dx.doi.org/10.3390/ma3042606,,175.2,1,8.4,8.4,20.85714286,Wan,http://dx.doi.org/10.3390/ma3042606,none,0.5341272274,,
,828,700,0.00002174,-0.0001289,1.95,0.2743530064,0.0001289,0.5349883625,0.0007642690892,Pb1.8S1.8Ti2S4,(Pb/Bi/Sn)S-(TiS2)2,,(Pb/Bi/Sn)S-(TiS2)2,,"solid-liquid-vapor reaction, vacuum",polycrystalline,Wan2010M,http://dx.doi.org/10.3390/ma3042606,,175.2,1,8.4,8.4,20.85714286,Wan,http://dx.doi.org/10.3390/ma3042606,none,0.4028967046,,
,829,300,0.00000478,-0.0000648,2.66,0.0990744644,0.0000648,0.2635380753,0.000878460251,Sn1.2S1.2Ti2S4,(Pb/Bi/Sn)S-(TiS2)2,,(Pb/Bi/Sn)S-(TiS2)2,,"solid-liquid-vapor reaction, vacuum",polycrystalline,Wan2010M,http://dx.doi.org/10.3390/ma3042606,,175.2,1,8.4,8.4,20.85714286,Wan,http://dx.doi.org/10.3390/ma3042606,none,0.5757070501,,
,830,400,0.0000085,-0.0000888,2.03,0.1827977977,0.0000888,0.3710795294,0.0009276988235,Sn1.2S1.2Ti2S4,(Pb/Bi/Sn)S-(TiS2)2,,(Pb/Bi/Sn)S-(TiS2)2,,"solid-liquid-vapor reaction, vacuum",polycrystalline,Wan2010M,http://dx.doi.org/10.3390/ma3042606,,175.2,1,8.4,8.4,20.85714286,Wan,http://dx.doi.org/10.3390/ma3042606,none,0.5656331498,,
,831,700,0.00002174,-0.0001408,1.69,0.3777088017,0.0001408,0.6383278749,0.0009118969641,Sn1.2S1.2Ti2S4,(Pb/Bi/Sn)S-(TiS2)2,,(Pb/Bi/Sn)S-(TiS2)2,,"solid-liquid-vapor reaction, vacuum",polycrystalline,Wan2010M,http://dx.doi.org/10.3390/ma3042606,,175.2,1,8.4,8.4,20.85714286,Wan,http://dx.doi.org/10.3390/ma3042606,none,0.4648808131,,
,832,300,0.000033,-0.000102,1.86,0.05085043988,0.000102,0.09458181818,0.0003152727273,Ba8Au5.14Si39.51,Ba8AuxSi46-x,,Ba8AuxSi46-x,,"melted, inert",polyrystalline,Candolfi2012JAP,http://dx.doi.org/10.1063/1.3682585,,1132.02,1,54,54,20.96333333,Cordier,http://dx.doi.org/10.1016/0022-5088(91)90076-G,40567,0.119257087,223,48
,833,400,0.0000342,-0.0001181,1.61,0.101322945,0.0001181,0.1631299415,0.0004078248538,Ba8Au5.14Si39.51,Ba8AuxSi46-x,,Ba8AuxSi46-x,,"melted, inert",polyrystalline,Candolfi2012JAP,http://dx.doi.org/10.1063/1.3682585,,1132.02,1,54,54,20.96333333,Cordier,http://dx.doi.org/10.1016/0022-5088(91)90076-G,40567,0.177254731,223,48
,834,700,0.0000287,-0.00009825,2.45,0.09609818318,0.00009825,0.2354405488,0.0003363436411,Ba8Au5.14Si39.51,Ba8AuxSi46-x,,Ba8AuxSi46-x,,"melted, inert",polyrystalline,Candolfi2012JAP,http://dx.doi.org/10.1063/1.3682585,,1132.02,1,54,54,20.96333333,Cordier,http://dx.doi.org/10.1016/0022-5088(91)90076-G,40567,0.2429069189,223,48
,835,300,0.0000234,0.0001062,1.77,0.08169230769,0.0001062,0.1445953846,0.0004819846154,Ba8Au5.59Si39.01,Ba8AuxSi46-x,,Ba8AuxSi46-x,,"melted, inert",polyrystalline,Candolfi2012JAP,http://dx.doi.org/10.1063/1.3682585,,1132.02,1,54,54,20.96333333,Cordier,http://dx.doi.org/10.1016/0022-5088(91)90076-G,40567,0.176734753,223,48
,836,400,0.0000253,0.0001265,1.62,0.1561728395,0.0001265,0.253,0.0006325,Ba8Au5.59Si39.01,Ba8AuxSi46-x,,Ba8AuxSi46-x,,"melted, inert",polyrystalline,Candolfi2012JAP,http://dx.doi.org/10.1063/1.3682585,,1132.02,1,54,54,20.96333333,Cordier,http://dx.doi.org/10.1016/0022-5088(91)90076-G,40567,0.2381300932,223,48
,837,700,0.0000275,0.00013648,2.41,0.1967371298,0.00013648,0.4741364829,0.0006773378327,Ba8Au5.59Si39.01,Ba8AuxSi46-x,,Ba8AuxSi46-x,,"melted, inert",polyrystalline,Candolfi2012JAP,http://dx.doi.org/10.1063/1.3682585,,1132.02,1,54,54,20.96333333,Cordier,http://dx.doi.org/10.1016/0022-5088(91)90076-G,40567,0.2577140702,223,48
,838,300,0.00000617,0.00004624,2.18,0.04768867411,0.00004624,0.1039613096,0.0003465376985,Ba8Au6.10Si38.97,Ba8AuxSi46-x,,Ba8AuxSi46-x,,"melted, inert",polyrystalline,Candolfi2012JAP,http://dx.doi.org/10.1063/1.3682585,,1132.02,1,54,54,20.96333333,Cordier,http://dx.doi.org/10.1016/0022-5088(91)90076-G,40567,0.544213641,223,48
,839,400,0.00000702,0.00005699,2.33,0.07942628908,0.00005699,0.1850632536,0.0004626581339,Ba8Au6.10Si38.97,Ba8AuxSi46-x,,Ba8AuxSi46-x,,"melted, inert",polyrystalline,Candolfi2012JAP,http://dx.doi.org/10.1063/1.3682585,,1132.02,1,54,54,20.96333333,Cordier,http://dx.doi.org/10.1016/0022-5088(91)90076-G,40567,0.5967010259,223,48
,840,700,0.00000789,0.00007687,2.95,0.1777103749,0.00007687,0.5242456058,0.000748922294,Ba8Au6.10Si38.97,Ba8AuxSi46-x,,Ba8AuxSi46-x,,"melted, inert",polyrystalline,Candolfi2012JAP,http://dx.doi.org/10.1063/1.3682585,,1132.02,1,54,54,20.96333333,Cordier,http://dx.doi.org/10.1016/0022-5088(91)90076-G,40567,0.7338188224,223,48
,841,300,0.00165,-0.000025,1.3,0.00008741258741,0.000025,0.0001136363636,0.0000003787878788,KBi6.33S10,K2S/Bi2S3,,K2S/Bi2S3,,"solid state reaction, vacuum",polycrystalline,Kanatizidis1996CM,http://dx.doi.org/10.1002/chin.199644003,,1204.18,4,9,36,33.44944444,McCarthy,http://dx.doi.org/10.1021/ja00109a012,79200,0.003412587413,62,8
,842,300,0.0021,0.00022,,,0.00022,0.006914285714,0.00002304761905,Tl11.5Sb11.5Cu8Se27,Tl11.5Sb11.5Cu8Se27,,Tl11.5Sb11.5Cu8Se27,,"solid state reaction, vacuum",polycrystalline,McGuire2005CM,http://dx.doi.org/10.1021/cm050412c,,1468,1,58,58,25.31034483,McGuire,http://dx.doi.org/10.1021/cm050412c,171227,,10,4
# outlier in rho,843,300,145,-0.00016,0.783,0.00000006764433875,0.00016,0.00000005296551724,0.0000000001765517241,TlTiPS5,TlTiPS5,,TlTiPS5,,"solid state reaction, vacuum",polycrystalline,McGuire2005CM,http://dx.doi.org/10.1021/cm050412c,,374.96,2,8,16,23.435,McGuire,http://dx.doi.org/10.1021/cm050412c,171214,0.00000006447351037,2,2
,844,300,1.3,0.000345,0.377,0.00007285758009,0.000345,0.00002746730769,0.00000009155769231,Tl2Cu2SnTe4,Tl2Cu2SnTe4,,Tl2Cu2SnTe4,,"solid state reaction, vacuum",polycrystalline,McGuire2005CM,http://dx.doi.org/10.1021/cm050412c,,500.1,2,9,18,27.78333333,McGuire,http://dx.doi.org/10.1021/cm050412c,171222,0.0000149357274,121,16
,845,300,0.00001446,-0.000151,8.52,0.05552227612,0.000151,0.4730497925,0.001576832642,Mg2Si0.999Bi0.001,Mg2Si1-xBix,0.001,Mg2Si,,"mechanochemical, Ar",polycrystalline,Bux2011JMC,http://dx.doi.org/10.1039/C1JM10827A,,258.55,4,3,12,21.54583333,Saravanan,http://dx.doi.org/10.1016/j.jallcom.2008.12.117,163708,0.05941597023,225,192
,846,400,0.00001706,-0.0001644,5.7,0.1111756648,0.0001644,0.6337012896,0.001584253224,Mg2Si0.999Bi0.001,Mg2Si1-xBix,0.001,Mg2Si,,"mechanochemical, Ar",polycrystalline,Bux2011JMC,http://dx.doi.org/10.1039/C1JM10827A,,258.55,4,3,12,21.54583333,Saravanan,http://dx.doi.org/10.1016/j.jallcom.2008.12.117,163708,0.1003681537,225,192
,847,700,0.00003167,-0.000231,3.66,0.3222499444,0.000231,1.179434796,0.001684906852,Mg2Si0.999Bi0.001,Mg2Si1-xBix,0.001,Mg2Si,,"mechanochemical, Ar",polycrystalline,Bux2011JMC,http://dx.doi.org/10.1039/C1JM10827A,,258.55,4,3,12,21.54583333,Saravanan,http://dx.doi.org/10.1016/j.jallcom.2008.12.117,163708,0.1473529102,225,192
,848,300,0.0000082,-0.000107,7.08,0.05916184374,0.000107,0.4188658537,0.001396219512,Mg2Si0.9985Bi0.0015,Mg2Si1-xBix,0.0015,Mg2Si,,"mechanochemical, Ar",polycrystalline,Bux2011JMC,http://dx.doi.org/10.1039/C1JM10827A,,258.55,4,3,12,21.54583333,Saravanan,http://dx.doi.org/10.1016/j.jallcom.2008.12.117,163708,0.1260851592,225,192
,849,400,0.00000902,-0.000149,5.07,0.1941860516,0.000149,0.9845232816,0.002461308204,Mg2Si0.9985Bi0.0015,Mg2Si1-xBix,0.0015,Mg2Si,,"mechanochemical, Ar",polycrystalline,Bux2011JMC,http://dx.doi.org/10.1039/C1JM10827A,,258.55,4,3,12,21.54583333,Saravanan,http://dx.doi.org/10.1016/j.jallcom.2008.12.117,163708,0.2134201008,225,192
,850,700,0.00001575,-0.000217,3.29,0.6361229314,0.000217,2.092844444,0.002989777778,Mg2Si0.9985Bi0.0015,Mg2Si1-xBix,0.0015,Mg2Si,,"mechanochemical, Ar",polycrystalline,Bux2011JMC,http://dx.doi.org/10.1039/C1JM10827A,,258.55,4,3,12,21.54583333,Saravanan,http://dx.doi.org/10.1016/j.jallcom.2008.12.117,163708,0.3296183722,225,192
,851,300,0.00000488,-0.0000766,6.16,0.05855692463,0.0000766,0.3607106557,0.001202368852,Mg2Si0.997Bi0.003,Mg2Si1-xBix,0.003,Mg2Si,,"mechanochemical, Ar",polycrystalline,Bux2011JMC,http://dx.doi.org/10.1039/C1JM10827A,,258.55,4,3,12,21.54583333,Saravanan,http://dx.doi.org/10.1016/j.jallcom.2008.12.117,163708,0.2435064935,225,192
,852,400,0.00000541,-0.000101,4.76,0.1584522903,0.000101,0.754232902,0.001885582255,Mg2Si0.997Bi0.003,Mg2Si1-xBix,0.003,Mg2Si,,"mechanochemical, Ar",polycrystalline,Bux2011JMC,http://dx.doi.org/10.1039/C1JM10827A,,258.55,4,3,12,21.54583333,Saravanan,http://dx.doi.org/10.1016/j.jallcom.2008.12.117,163708,0.3790055764,225,192
,853,700,0.00000929,-0.000153,3.53,0.4996782919,0.000153,1.76386437,0.002519806243,Mg2Si0.997Bi0.003,Mg2Si1-xBix,0.003,Mg2Si,,"mechanochemical, Ar",polycrystalline,Bux2011JMC,http://dx.doi.org/10.1039/C1JM10827A,,258.55,4,3,12,21.54583333,Saravanan,http://dx.doi.org/10.1016/j.jallcom.2008.12.117,163708,0.5208317451,225,192
,854,300,0.00000369,-0.0000677,6.55,0.05688934401,0.0000677,0.3726252033,0.001242084011,Mg2Si0.995Bi0.005,Mg2Si1-xBix,0.005,Mg2Si,,"mechanochemical, Ar",polycrystalline,Bux2011JMC,http://dx.doi.org/10.1039/C1JM10827A,,258.55,4,3,12,21.54583333,Saravanan,http://dx.doi.org/10.1016/j.jallcom.2008.12.117,163708,0.3028610439,225,192
,855,400,0.00000396,-0.0000835,5.41,0.1301788682,0.0000835,0.7042676768,0.001760669192,Mg2Si0.995Bi0.005,Mg2Si1-xBix,0.005,Mg2Si,,"mechanochemical, Ar",polycrystalline,Bux2011JMC,http://dx.doi.org/10.1039/C1JM10827A,,258.55,4,3,12,21.54583333,Saravanan,http://dx.doi.org/10.1016/j.jallcom.2008.12.117,163708,0.4555723595,225,192
,856,700,0.00000621,-0.0001212,4.29,0.3859707442,0.0001212,1.655814493,0.002365449275,Mg2Si0.995Bi0.005,Mg2Si1-xBix,0.005,Mg2Si,,"mechanochemical, Ar",polycrystalline,Bux2011JMC,http://dx.doi.org/10.1039/C1JM10827A,,258.55,4,3,12,21.54583333,Saravanan,http://dx.doi.org/10.1016/j.jallcom.2008.12.117,163708,0.6411194817,225,192
,857,300,0.0000033,-0.000061,6.55,0.05164469119,0.000061,0.3382727273,0.001127575758,Mg2Si0.994Bi0.006,Mg2Si1-xBix,0.007,Mg2Si,,"mechanochemical, Ar",polycrystalline,Bux2011JMC,http://dx.doi.org/10.1039/C1JM10827A,,258.55,4,3,12,21.54583333,Saravanan,http://dx.doi.org/10.1016/j.jallcom.2008.12.117,163708,0.3386537127,225,192
,858,400,0.00000348,-0.0000786,5.68,0.1250194269,0.0000786,0.7101103448,0.001775275862,Mg2Si0.993Bi0.007,Mg2Si1-xBix,0.007,Mg2Si,,"mechanochemical, Ar",polycrystalline,Bux2011JMC,http://dx.doi.org/10.1039/C1JM10827A,,258.55,4,3,12,21.54583333,Saravanan,http://dx.doi.org/10.1016/j.jallcom.2008.12.117,163708,0.4937672009,225,192
,859,700,0.00000569,-0.000125,4.4,0.4368709059,0.000125,1.922231986,0.002746045694,Mg2Si0.993Bi0.007,Mg2Si1-xBix,0.007,Mg2Si,,"mechanochemical, Ar",polycrystalline,Bux2011JMC,http://dx.doi.org/10.1039/C1JM10827A,,258.55,4,3,12,21.54583333,Saravanan,http://dx.doi.org/10.1016/j.jallcom.2008.12.117,163708,0.6822176066,225,192