# Outliers,Original Index,Temperature (K),Electrical Resistivity (Ohm m),Seebeck Coefficient (V/K),Thermal Conductivity (W/(m K)),Figure of Merit,Thermopower (V/K),Thermal Conductivity x Figure of Merit (W/m K),Power Factor (W/(K^2 m)),Formula,Series,Series Index,Family,Electrical Conductivity (S/m),Preparative Route,Final Form,Authors,DOI,Comments,Cell Volume (A^3),Formula Units per Cell,Atoms per Formula Unit,Total Atoms Per Unit Cell,Average Atomic Volume,Author of Unit Cell,Unit Cell DOI,ICSD ID,Electronic over Total Thermal Conductivity,Space Group,Number of Symmetry Elements
,683,1000,0.0001938202356,-0.000173573,,,0.000173573,0.1554408715,0.0001554408715,Zn0.97Al0.03O,Zn1-x-yAlxTiyO,0.03,ZnO,,"solid state reaction, air",polycrystalline,Park2007JECS,http://dx.doi.org/10.1016/j.jeurceramsoc.2006.04.012,,47.62,2,2,4,11.905,Abrahams,http://dx.doi.org/10.1107/S0567740869003876,26170,,186,12
,684,700,0.0004683248488,-0.000112738,,,0.000112738,0.01899728292,0.0000271389756,Zn0.95Al0.05O,Zn1-x-yAlxTiyO,0.05,ZnO,,"solid state reaction, air",polycrystalline,Park2007JECS,http://dx.doi.org/10.1016/j.jeurceramsoc.2006.04.012,,47.62,2,2,4,11.905,Abrahams,http://dx.doi.org/10.1107/S0567740869003876,26170,,186,12
,685,1000,0.0001831857467,-0.000164443,,,0.000164443,0.1476179274,0.0001476179274,Zn0.95Al0.05O,Zn1-x-yAlxTiyO,0.05,ZnO,,"solid state reaction, air",polycrystalline,Park2007JECS,http://dx.doi.org/10.1016/j.jeurceramsoc.2006.04.012,,47.62,2,2,4,11.905,Abrahams,http://dx.doi.org/10.1107/S0567740869003876,26170,,186,12
,686,700,0.0003382354931,-0.000170775,,,0.000170775,0.06035697275,0.00008622424678,Zn0.97Al0.025Ti0.005O,Zn1-x-yAlxTiyO,0.025,ZnO,,"solid state reaction, air",polycrystalline,Park2007JECS,http://dx.doi.org/10.1016/j.jeurceramsoc.2006.04.012,,47.62,2,2,4,11.905,Abrahams,http://dx.doi.org/10.1107/S0567740869003876,26170,,186,12
,687,1000,0.0001739496485,-0.000217259,,,0.000217259,0.2713513564,0.0002713513564,Zn0.97Al0.025Ti0.005O,Zn1-x-yAlxTiyO,0.025,ZnO,,"solid state reaction, air",polycrystalline,Park2007JECS,http://dx.doi.org/10.1016/j.jeurceramsoc.2006.04.012,,47.62,2,2,4,11.905,Abrahams,http://dx.doi.org/10.1107/S0567740869003876,26170,,186,12
,688,700,0.000294033761,-0.00014796,,,0.00014796,0.05211820939,0.00007445458484,Zn0.97Al0.02Ti0.01O,Zn1-x-yAlxTiyO,0.02,ZnO,,"solid state reaction, air",polycrystalline,Park2007JECS,http://dx.doi.org/10.1016/j.jeurceramsoc.2006.04.012,,47.62,2,2,4,11.905,Abrahams,http://dx.doi.org/10.1107/S0567740869003876,26170,,186,12
,689,1000,0.0001589860506,-0.000212256,,,0.000212256,0.2833746066,0.0002833746066,Zn0.97Al0.02Ti0.01O,Zn1-x-yAlxTiyO,0.02,ZnO,,"solid state reaction, air",polycrystalline,Park2007JECS,http://dx.doi.org/10.1016/j.jeurceramsoc.2006.04.012,,47.62,2,2,4,11.905,Abrahams,http://dx.doi.org/10.1107/S0567740869003876,26170,,186,12
,690,700,0.0002600502937,-0.000143177,,,0.000143177,0.05518070034,0.00007882957191,Zn0.97Al0.015Ti0.015O,Zn1-x-yAlxTiyO,0.015,ZnO,,"solid state reaction, air",polycrystalline,Park2007JECS,http://dx.doi.org/10.1016/j.jeurceramsoc.2006.04.012,,47.62,2,2,4,11.905,Abrahams,http://dx.doi.org/10.1107/S0567740869003876,26170,,186,12
,691,1000,0.0001445531645,-0.000205305,,,0.000205305,0.2915892099,0.0002915892099,Zn0.97Al0.015Ti0.015O,Zn1-x-yAlxTiyO,0.015,ZnO,,"solid state reaction, air",polycrystalline,Park2007JECS,http://dx.doi.org/10.1016/j.jeurceramsoc.2006.04.012,,47.62,2,2,4,11.905,Abrahams,http://dx.doi.org/10.1107/S0567740869003876,26170,,186,12
,692,700,0.0002352271471,-0.000139044,,,0.000139044,0.05753274621,0.00008218963744,Zn0.97Al0.01Ti0.02O,Zn1-x-yAlxTiyO,0.01,ZnO,,"solid state reaction, air",polycrystalline,Park2007JECS,http://dx.doi.org/10.1016/j.jeurceramsoc.2006.04.012,,47.62,2,2,4,11.905,Abrahams,http://dx.doi.org/10.1107/S0567740869003876,26170,,186,12
,693,1000,0.0001325224725,-0.000195093,,,0.000195093,0.2872062219,0.0002872062219,Zn0.97Al0.01Ti0.02O,Zn1-x-yAlxTiyO,0.01,ZnO,,"solid state reaction, air",polycrystalline,Park2007JECS,http://dx.doi.org/10.1016/j.jeurceramsoc.2006.04.012,,47.62,2,2,4,11.905,Abrahams,http://dx.doi.org/10.1107/S0567740869003876,26170,,186,12
,694,300,0.0000974787,-0.000178765,4.087,0.02406422473,0.000178765,0.09835048649,0.000327834955,Zr0.5Hf0.5NiSn,(Zr0.5Hf0.5)1-xTixNiSn,0,ZrNiSn,,"arc-melted, Ar",polycrystalline,Sakurada2005APL,http://dx.doi.org/10.1063/1.1868063,,226.87,4,3,12,18.90583333,Skolozdra,http://dx.doi.org/10.1016/0304-8853(93)90861-U,646828,0.01837370396,216,96
,695,400,0.0000625721,-0.000208592,3.53,0.07879521622,0.000208592,0.2781471133,0.0006953677831,Zr0.5Hf0.5NiSn,(Zr0.5Hf0.5)1-xTixNiSn,0,ZrNiSn,,"arc-melted, Ar",polycrystalline,Sakurada2005APL,http://dx.doi.org/10.1063/1.1868063,,226.87,4,3,12,18.90583333,Skolozdra,http://dx.doi.org/10.1016/0304-8853(93)90861-U,646828,0.04418698623,216,96
,696,700,0.0000216666,-0.000236062,3.274,0.5498962574,0.000236062,1.800360347,0.002571943353,Zr0.5Hf0.5NiSn,(Zr0.5Hf0.5)1-xTixNiSn,0,ZrNiSn,,"arc-melted, Ar",polycrystalline,Sakurada2005APL,http://dx.doi.org/10.1063/1.1868063,,226.87,4,3,12,18.90583333,Skolozdra,http://dx.doi.org/10.1016/0304-8853(93)90861-U,646828,0.2407788998,216,96
,697,300,0.0000904316,-0.000188659,3.814,0.03095817903,0.000188659,0.1180744948,0.0003935816493,Zr0.4Hf0.4Ti0.2NiSn,(Zr0.5Hf0.5)1-xTixNiSn,0.2,ZrNiSn,,"arc-melted, Ar",polycrystalline,Sakurada2005APL,http://dx.doi.org/10.1063/1.1868063,,226.87,4,3,12,18.90583333,Skolozdra,http://dx.doi.org/10.1016/0304-8853(93)90861-U,646828,0.02122316632,216,96
,698,400,0.0000511455,-0.000233589,3.345,0.1275737188,0.000233589,0.4267340894,0.001066835223,Zr0.4Hf0.4Ti0.2NiSn,(Zr0.5Hf0.5)1-xTixNiSn,0.2,ZrNiSn,,"arc-melted, Ar",polycrystalline,Sakurada2005APL,http://dx.doi.org/10.1063/1.1868063,,226.87,4,3,12,18.90583333,Skolozdra,http://dx.doi.org/10.1016/0304-8853(93)90861-U,646828,0.05704876759,216,96
,699,700,0.0000176663,-0.000276689,3.196,0.9491382064,0.000276689,3.033445708,0.004333493868,Zr0.4Hf0.4Ti0.2NiSn,(Zr0.5Hf0.5)1-xTixNiSn,0.2,ZrNiSn,,"arc-melted, Ar",polycrystalline,Sakurada2005APL,http://dx.doi.org/10.1063/1.1868063,,226.87,4,3,12,18.90583333,Skolozdra,http://dx.doi.org/10.1016/0304-8853(93)90861-U,646828,0.3025070459,216,96
,700,300,0.0000860507,-0.000369912,3.17,0.1504888853,0.000369912,0.4770497663,0.001590165888,Zr0.35Hf0.35Ti0.3NiSn,(Zr0.5Hf0.5)1-xTixNiSn,0.3,ZrNiSn,,"arc-melted, Ar",polycrystalline,Sakurada2005APL,http://dx.doi.org/10.1063/1.1868063,,226.87,4,3,12,18.90583333,Skolozdra,http://dx.doi.org/10.1016/0304-8853(93)90861-U,646828,0.0268347412,216,96
,701,400,0.0000555251,-0.000379426,2.837,0.3655657342,0.000379426,1.037109988,0.00259277497,Zr0.35Hf0.35Ti0.3NiSn,(Zr0.5Hf0.5)1-xTixNiSn,0.3,ZrNiSn,,"arc-melted, Ar",polycrystalline,Sakurada2005APL,http://dx.doi.org/10.1063/1.1868063,,226.87,4,3,12,18.90583333,Skolozdra,http://dx.doi.org/10.1016/0304-8853(93)90861-U,646828,0.06195853387,216,96
,702,700,0.0000228094,-0.000348046,2.942,1.263615091,0.000348046,3.717555599,0.005310793713,Zr0.35Hf0.35Ti0.3NiSn,(Zr0.5Hf0.5)1-xTixNiSn,0.3,ZrNiSn,,"arc-melted, Ar",polycrystalline,Sakurada2005APL,http://dx.doi.org/10.1063/1.1868063,,226.87,4,3,12,18.90583333,Skolozdra,http://dx.doi.org/10.1016/0304-8853(93)90861-U,646828,0.2545255219,216,96
,703,300,0.0000475748,-0.000311579,3.0626,0.1998896758,0.000311579,0.612182121,0.00204060707,Zr0.25Hf0.25Ti0.5NiSn,(Zr0.5Hf0.5)1-xTixNiSn,0.5,ZrNiSn,,"arc-melted, Ar",polycrystalline,Sakurada2005APL,http://dx.doi.org/10.1063/1.1868063,,226.87,4,3,12,18.90583333,Skolozdra,http://dx.doi.org/10.1016/0304-8853(93)90861-U,646828,0.05023932916,216,96
,704,400,0.0000338128,-0.000329939,3.003,0.4288355996,0.000329939,1.287793306,0.003219483264,Zr0.25Hf0.25Ti0.5NiSn,(Zr0.5Hf0.5)1-xTixNiSn,0.5,ZrNiSn,,"arc-melted, Ar",polycrystalline,Sakurada2005APL,http://dx.doi.org/10.1063/1.1868063,,226.87,4,3,12,18.90583333,Skolozdra,http://dx.doi.org/10.1016/0304-8853(93)90861-U,646828,0.09611990874,216,96
,705,700,0.0000163327,-0.000328251,3.254,1.419170654,0.000328251,4.617981307,0.006597116154,Zr0.25Hf0.25Ti0.5NiSn,(Zr0.5Hf0.5)1-xTixNiSn,0.5,ZrNiSn,,"arc-melted, Ar",polycrystalline,Sakurada2005APL,http://dx.doi.org/10.1063/1.1868063,,226.87,4,3,12,18.90583333,Skolozdra,http://dx.doi.org/10.1016/0304-8853(93)90861-U,646828,0.3213751799,216,96
,706,300,0.000048146,-0.000252204,3.394,0.1167758792,0.000252204,0.396337334,0.001321124447,Zr0.15Hf0.15Ti0.7NiSn,(Zr0.5Hf0.5)1-xTixNiSn,0.7,ZrNiSn,,"arc-melted, Ar",polycrystalline,Sakurada2005APL,http://dx.doi.org/10.1063/1.1868063,,226.87,4,3,12,18.90583333,Skolozdra,http://dx.doi.org/10.1016/0304-8853(93)90861-U,646828,0.04479597892,216,96
,707,400,0.0000313369,-0.000264835,3.072,0.291429498,0.000264835,0.8952714177,0.002238178544,Zr0.15Hf0.15Ti0.7NiSn,(Zr0.5Hf0.5)1-xTixNiSn,0.7,ZrNiSn,,"arc-melted, Ar",polycrystalline,Sakurada2005APL,http://dx.doi.org/10.1063/1.1868063,,226.87,4,3,12,18.90583333,Skolozdra,http://dx.doi.org/10.1016/0304-8853(93)90861-U,646828,0.101384736,216,96
,708,700,0.0000148089,-0.000260541,3.157,1.016372274,0.000260541,3.208687268,0.004583838954,Zr0.15Hf0.15Ti0.7NiSn,(Zr0.5Hf0.5)1-xTixNiSn,0.7,ZrNiSn,,"arc-melted, Ar",polycrystalline,Sakurada2005APL,http://dx.doi.org/10.1063/1.1868063,,226.87,4,3,12,18.90583333,Skolozdra,http://dx.doi.org/10.1016/0304-8853(93)90861-U,646828,0.3653343298,216,96
,709,300,0.00000993432,0.0000682676,,,0.0000682676,0.1407383256,0.0004691277521,CeFe4Sb12,CeFexCo4-xSb12,4,CeCo4Sb12,,"melted, vacuum",polycrystalline,Sales1996S,http://www.jstor.org/stable/2889796,,762.3,2,17,34,22.42058824,Braun,http://dx.doi.org/10.1016/0022-5088(80)90260-X,621065,,204,48
,710,400,0.0000105643,0.0000870227,,,0.0000870227,0.28673742,0.00071684355,CeFe4Sb12,CeFexCo4-xSb12,4,CeCo4Sb12,,"melted, vacuum",polycrystalline,Sales1996S,http://www.jstor.org/stable/2889796,,762.3,2,17,34,22.42058824,Braun,http://dx.doi.org/10.1016/0022-5088(80)90260-X,621065,,204,48
,711,700,0.0000130209,0.000128846,,,0.000128846,0.8924808732,0.001274972676,CeFe4Sb12,CeFexCo4-xSb12,4,CeCo4Sb12,,"melted, vacuum",polycrystalline,Sales1996S,http://www.jstor.org/stable/2889796,,762.3,2,17,34,22.42058824,Braun,http://dx.doi.org/10.1016/0022-5088(80)90260-X,621065,,204,48
,712,1000,0.0000174341,0.000156737,,,0.000156737,1.409105556,0.001409105556,CeFe4Sb12,CeFexCo4-xSb12,4,CeCo4Sb12,,"melted, vacuum",polycrystalline,Sales1996S,http://www.jstor.org/stable/2889796,,762.3,2,17,34,22.42058824,Braun,http://dx.doi.org/10.1016/0022-5088(80)90260-X,621065,,204,48
,713,300,0.0000147222,0.0000865388,1.37,0.1113908997,0.0000865388,0.1526055326,0.0005086851086,CeFe3CoSb12,CeFexCo4-xSb12,3,CeCo4Sb12,,"melted, vacuum",polycrystalline,Sales1996S,http://www.jstor.org/stable/2889796,,756.81,2,17,34,22.25911765,Berardan,http://dx.doi.org/10.1016/S0925-8388(02)00968-4,96163,0.3629257647,204,48
,714,400,0.0000162618,0.000107702,,,0.000107702,0.2853243996,0.000713310999,CeFe3CoSb12,CeFexCo4-xSb12,3,CeCo4Sb12,,"melted, vacuum",polycrystalline,Sales1996S,http://www.jstor.org/stable/2889796,,756.81,2,17,34,22.25911765,Berardan,http://dx.doi.org/10.1016/S0925-8388(02)00968-4,96163,,204,48
,715,700,0.0000201791,0.000149997,,,0.000149997,0.7804793081,0.00111497044,CeFe3CoSb12,CeFexCo4-xSb12,3,CeCo4Sb12,,"melted, vacuum",polycrystalline,Sales1996S,http://www.jstor.org/stable/2889796,,756.81,2,17,34,22.25911765,Berardan,http://dx.doi.org/10.1016/S0925-8388(02)00968-4,96163,,204,48
,716,1000,0.0000230374,0.000176441,,,0.000176441,1.351342881,0.001351342881,CeFe3CoSb12,CeFexCo4-xSb12,3,CeCo4Sb12,,"melted, vacuum",polycrystalline,Sales1996S,http://www.jstor.org/stable/2889796,,756.81,2,17,34,22.25911765,Berardan,http://dx.doi.org/10.1016/S0925-8388(02)00968-4,96163,,204,48
,717,300,0.000027419,0.000104331,,,0.000104331,0.1190957828,0.0003969859426,CeFe2.5Co1.5Sb12,CeFexCo4-xSb12,2.5,CeCo4Sb12,,"melted, vacuum",polycrystalline,Sales1996S,http://www.jstor.org/stable/2889796,,756.81,2,17,34,22.25911765,Berardan,http://dx.doi.org/10.1016/S0925-8388(02)00968-4,96163,,204,48
,718,400,0.0000287783,0.000123077,,,0.000123077,0.2105468069,0.0005263670171,CeFe2.5Co1.5Sb12,CeFexCo4-xSb12,2.5,CeCo4Sb12,,"melted, vacuum",polycrystalline,Sales1996S,http://www.jstor.org/stable/2889796,,756.81,2,17,34,22.25911765,Berardan,http://dx.doi.org/10.1016/S0925-8388(02)00968-4,96163,,204,48
,719,700,0.0000330908,0.000162016,,,0.000162016,0.555273036,0.0007932471943,CeFe2.5Co1.5Sb12,CeFexCo4-xSb12,2.5,CeCo4Sb12,,"melted, vacuum",polycrystalline,Sales1996S,http://www.jstor.org/stable/2889796,,756.81,2,17,34,22.25911765,Berardan,http://dx.doi.org/10.1016/S0925-8388(02)00968-4,96163,,204,48
,720,1000,0.0000339272,0.000189903,,,0.000189903,1.062956843,0.001062956843,CeFe2.5Co1.5Sb12,CeFexCo4-xSb12,2.5,CeCo4Sb12,,"melted, vacuum",polycrystalline,Sales1996S,http://www.jstor.org/stable/2889796,,756.81,2,17,34,22.25911765,Berardan,http://dx.doi.org/10.1016/S0925-8388(02)00968-4,96163,,204,48
,721,300,0.0000473037,0.000107699,,,0.000107699,0.07356131508,0.0002452043836,CeFe2Co2Sb12,CeFexCo4-xSb12,2,CeCo4Sb12,,"melted, vacuum",polycrystalline,Sales1996S,http://www.jstor.org/stable/2889796,,747,2,17,34,21.97058824,Berardan,http://dx.doi.org/10.1016/S0925-8388(02)00968-4,96163,,204,48
,722,400,0.0000481344,0.000134608,,,0.000134608,0.150572677,0.0003764316926,CeFe2Co2Sb12,CeFexCo4-xSb12,2,CeCo4Sb12,,"melted, vacuum",polycrystalline,Sales1996S,http://www.jstor.org/stable/2889796,,747,2,17,34,21.97058824,Berardan,http://dx.doi.org/10.1016/S0925-8388(02)00968-4,96163,,204,48
,723,700,0.000048781,0.000163937,,,0.000163937,0.3856570792,0.0005509386845,CeFe2Co2Sb12,CeFexCo4-xSb12,2,CeCo4Sb12,,"melted, vacuum",polycrystalline,Sales1996S,http://www.jstor.org/stable/2889796,,747,2,17,34,21.97058824,Berardan,http://dx.doi.org/10.1016/S0925-8388(02)00968-4,96163,,204,48
,724,1000,0.0000499442,0.000117784,,,0.000117784,0.277771406,0.000277771406,CeFe2Co2Sb12,CeFexCo4-xSb12,2,CeCo4Sb12,,"melted, vacuum",polycrystalline,Sales1996S,http://www.jstor.org/stable/2889796,,747,2,17,34,21.97058824,Berardan,http://dx.doi.org/10.1016/S0925-8388(02)00968-4,96163,,204,48
,725,300,0.000104532,-0.0000870125,,,0.0000870125,0.02172877728,0.00007242925761,CeFeCo3Sb12,CeFexCo4-xSb12,1,CeCo4Sb12,,"melted, vacuum",polycrystalline,Sales1996S,http://www.jstor.org/stable/2889796,,747,2,17,34,21.97058824,Berardan,http://dx.doi.org/10.1016/S0925-8388(02)00968-4,96163,,204,48
,726,400,0.0000985308,-0.000102424,,,0.000102424,0.04258841205,0.0001064710301,CeFeCo3Sb12,CeFexCo4-xSb12,1,CeCo4Sb12,,"melted, vacuum",polycrystalline,Sales1996S,http://www.jstor.org/stable/2889796,,747,2,17,34,21.97058824,Berardan,http://dx.doi.org/10.1016/S0925-8388(02)00968-4,96163,,204,48
,727,700,0.0000608923,-0.000140861,,,0.000140861,0.2280957514,0.0003258510735,CeFeCo3Sb12,CeFexCo4-xSb12,1,CeCo4Sb12,,"melted, vacuum",polycrystalline,Sales1996S,http://www.jstor.org/stable/2889796,,747,2,17,34,21.97058824,Berardan,http://dx.doi.org/10.1016/S0925-8388(02)00968-4,96163,,204,48
,728,1000,0.0000448351,-0.000138009,,,0.000138009,0.4248119014,0.0004248119014,CeFeCo3Sb12,CeFexCo4-xSb12,1,CeCo4Sb12,,"melted, vacuum",polycrystalline,Sales1996S,http://www.jstor.org/stable/2889796,,747,2,17,34,21.97058824,Berardan,http://dx.doi.org/10.1016/S0925-8388(02)00968-4,96163,,204,48
,729,300,0.000609811,0.0000163458,,,0.0000163458,0.0001314432722,0.0000004381442408,CeFe1.5Co2.5Sb12,CeFexCo4-xSb12,1.5,CeCo4Sb12,,"melted, vacuum",polycrystalline,Sales1996S,http://www.jstor.org/stable/2889796,,747,2,17,34,21.97058824,Berardan,http://dx.doi.org/10.1016/S0925-8388(02)00968-4,96163,,204,48
,730,400,0.000446028,0.0000120057,,,0.0000120057,0.0001292625866,0.0000003231564666,CeFe1.5Co2.5Sb12,CeFexCo4-xSb12,1.5,CeCo4Sb12,,"melted, vacuum",polycrystalline,Sales1996S,http://www.jstor.org/stable/2889796,,747,2,17,34,21.97058824,Berardan,http://dx.doi.org/10.1016/S0925-8388(02)00968-4,96163,,204,48
,731,700,0.00011935,-0.0000355636,,,0.0000355636,0.007418003783,0.00001059714826,CeFe1.5Co2.5Sb12,CeFexCo4-xSb12,1.5,CeCo4Sb12,,"melted, vacuum",polycrystalline,Sales1996S,http://www.jstor.org/stable/2889796,,747,2,17,34,21.97058824,Berardan,http://dx.doi.org/10.1016/S0925-8388(02)00968-4,96163,,204,48
,732,1000,0.0000397477,-0.0000899103,,,0.0000899103,0.2033793665,0.0002033793665,CeFe1.5Co2.5Sb12,CeFexCo4-xSb12,1.5,CeCo4Sb12,,"melted, vacuum",polycrystalline,Sales1996S,http://www.jstor.org/stable/2889796,,747,2,17,34,21.97058824,Berardan,http://dx.doi.org/10.1016/S0925-8388(02)00968-4,96163,,204,48
,733,300,0.0000164306,0.000108391,1.6,0.1340708291,0.000108391,0.2145133266,0.0007150444221,LaFe3CoSb12,LaFexCo4-xSb12,3,LaCo4Sb12,,"melted, vacuum",polycrystalline,Sales1996S,http://www.jstor.org/stable/2889796,,752.85,2,17,34,22.14264706,Chakoumakos,http://dx.doi.org/10.1107/S0108768198018345,280118,0.2784438791,204,48
,734,400,0.0000183033,0.000142661,1.6,0.2779848568,0.000142661,0.4447757709,0.001111939427,LaFe3CoSb12,LaFexCo4-xSb12,3,LaCo4Sb12,,"melted, vacuum",polycrystalline,Sales1996S,http://www.jstor.org/stable/2889796,,752.85,2,17,34,22.14264706,Chakoumakos,http://dx.doi.org/10.1107/S0108768198018345,280118,0.3332732349,204,48
,735,700,0.0000231764,0.000210479,1.57,0.8522557761,0.000210479,1.338041569,0.001911487955,LaFe3CoSb12,LaFexCo4-xSb12,3,LaCo4Sb12,,"melted, vacuum",polycrystalline,Sales1996S,http://www.jstor.org/stable/2889796,,752.85,2,17,34,22.14264706,Chakoumakos,http://dx.doi.org/10.1107/S0108768198018345,280118,0.4693990823,204,48
,736,300,0.0000932355,-0.000177252,3.948955807,0.0256,0.000177252,0.1010932687,0.0003369775622,Zr0.5Hf0.5NiSn,Tix(Zr0.5Hf0.5)1-xNiSn,0,TiNiSn,,"arc-melted, Ar",polycrystalline,Shutoh2005JAC,http://dx.doi.org/10.1016/j.jallcom.2004.05.078,,226.87,4,3,12,18.90583333,Skolozdra,http://dx.doi.org/10.1016/0304-8853(93)90861-U,646828,0.01988142473,216,96
,737,700,0.0000236129,-0.000237912,3.113096927,0.539,0.000237912,1.677959243,0.002397084634,Zr0.5Hf0.5NiSn,Tix(Zr0.5Hf0.5)1-xNiSn,0,TiNiSn,,"arc-melted, Ar",polycrystalline,Shutoh2005JAC,http://dx.doi.org/10.1016/j.jallcom.2004.05.078,,226.87,4,3,12,18.90583333,Skolozdra,http://dx.doi.org/10.1016/0304-8853(93)90861-U,646828,0.2323517222,216,96
,738,300,0.00002408,-0.00025,2.887113404,0.2697,0.00025,0.778654485,0.00259551495,Zr0.5Hf0.5NiSn1.998Sb0.002,Tix(Zr0.5Hf0.5)1-xNiSn1-xSbx,0.002,TiNiSn,,"arc-melted, Ar",polycrystalline,Shutoh2005JAC,http://dx.doi.org/10.1016/j.jallcom.2004.05.078,,226.87,4,3,12,18.90583333,Skolozdra,http://dx.doi.org/10.1016/0304-8853(93)90861-U,646828,0.10529088,216,96
,739,400,0.00002168,-0.000281,2.712932995,0.537,0.000281,1.456845018,0.003642112546,Zr0.5Hf0.5NiSn1.998Sb0.002,Tix(Zr0.5Hf0.5)1-xNiSn1-xSbx,0.002,TiNiSn,,"arc-melted, Ar",polycrystalline,Shutoh2005JAC,http://dx.doi.org/10.1016/j.jallcom.2004.05.078,,226.87,4,3,12,18.90583333,Skolozdra,http://dx.doi.org/10.1016/0304-8853(93)90861-U,646828,0.1659401477,216,96
,740,700,0.00001544,-0.000307,2.946859925,1.45,0.000307,4.272946891,0.006104209845,Zr0.5Hf0.5NiSn1.998Sb0.002,Tix(Zr0.5Hf0.5)1-xNiSn1-xSbx,0.002,TiNiSn,,"arc-melted, Ar",polycrystalline,Shutoh2005JAC,http://dx.doi.org/10.1016/j.jallcom.2004.05.078,,226.87,4,3,12,18.90583333,Skolozdra,http://dx.doi.org/10.1016/0304-8853(93)90861-U,646828,0.3753885983,216,96
,741,300,0.00001166,-0.000211,2.766860566,0.414,0.000211,1.145480274,0.003818267581,Zr0.5Hf0.5NiSn1.994Sb0.006,Tix(Zr0.5Hf0.5)1-xNiSn1-xSbx,0.006,TiNiSn,,"arc-melted, Ar",polycrystalline,Shutoh2005JAC,http://dx.doi.org/10.1016/j.jallcom.2004.05.078,,226.87,4,3,12,18.90583333,Skolozdra,http://dx.doi.org/10.1016/0304-8853(93)90861-U,646828,0.2268951731,216,96
,742,400,0.000012526,-0.000237,2.645541521,0.678,0.000237,1.793677152,0.004484192879,Zr0.5Hf0.5NiSn1.994Sb0.006,Tix(Zr0.5Hf0.5)1-xNiSn1-xSbx,0.006,TiNiSn,,"arc-melted, Ar",polycrystalline,Shutoh2005JAC,http://dx.doi.org/10.1016/j.jallcom.2004.05.078,,226.87,4,3,12,18.90583333,Skolozdra,http://dx.doi.org/10.1016/0304-8853(93)90861-U,646828,0.29452545,216,96