# Outliers,Original Index,Temperature (K),Electrical Resistivity (Ohm m),Seebeck Coefficient (V/K),Thermal Conductivity (W/(m K)),Figure of Merit,Thermopower (V/K),Thermal Conductivity x Figure of Merit (W/m K),Power Factor (W/(K^2 m)),Formula,Series,Series Index,Family,Electrical Conductivity (S/m),Preparative Route,Final Form,Authors,DOI,Comments,Cell Volume (A^3),Formula Units per Cell,Atoms per Formula Unit,Total Atoms Per Unit Cell,Average Atomic Volume,Author of Unit Cell,Unit Cell DOI,ICSD ID,Electronic over Total Thermal Conductivity,Space Group,Number of Symmetry Elements
,111,700,0.00031,0.000022,,,0.000022,0.001092903226,0.000001561290323,Nd2Ru2O7,Nd2Ru2O7,0,A2Ru2O7,3225.806452,Ultrasonic spray pyrolysis,polycrystalline,Gaultois2013JPCM,https://doi.org/10.1088/0953-8984/25/18/186008,"38.8% density, extrapolated 560 K, mg070",1104.29,8,11,88,12.54875,Yamamoto,http://dx.doi.org/10.1006/jssc.1994.1116,78133,,227,192
,112,400,0.00011934,-0.000090279,2.41307,0.0113208104,0.000090279,0.02731790796,0.00006829476991,Ca0.9Nd0.1MnO3,Ca1-xNdxMnO3,0.1,CaMnO3,8379.420144,Solid state reaction,polycrystalline,Flahaut2006JAP,http://dx.doi.org/10.1063/1.2362922,Seebeck enhanced w/ Temp,210.93,4,5,20,10.5465,Wang,http://dx.doi.org/10.1021/jp809049s,164747,0.03389173982,62,8
,113,700,0.000174057,-0.000123847,2.41558,0.02553619011,0.000123847,0.0616847101,0.00008812101443,Ca0.9Nd0.1MnO3,Ca1-xNdxMnO3,0.1,CaMnO3,5745.244374,Solid state reaction,polycrystalline,Flahaut2006JAP,http://dx.doi.org/10.1063/1.2362922,Seebeck enhanced w/ Temp,210.93,4,5,20,10.5465,Wang,http://dx.doi.org/10.1021/jp809049s,164747,0.04062327636,62,8
,114,1000,0.000213208,-0.000130035,2.38232,0.03329024037,0.000130035,0.07930800545,0.00007930800545,Ca0.9Nd0.1MnO3,Ca1-xNdxMnO3,0.1,CaMnO3,4690.255525,Solid state reaction,polycrystalline,Flahaut2006JAP,http://dx.doi.org/10.1063/1.2362922,Seebeck enhanced w/ Temp,210.93,4,5,20,10.5465,Wang,http://dx.doi.org/10.1021/jp809049s,164747,0.04803814551,62,8
,115,400,0.000107547,-0.000090279,1.5871,0.01909989057,0.000090279,0.03031343632,0.00007578359081,Ca0.9Tb0.1MnO3,Ca1-xTbxMnO3,0.1,CaMnO3,9298.260295,Solid state reaction,polycrystalline,Flahaut2006JAP,http://dx.doi.org/10.1063/1.2362922,Seebeck enhanced w/ Temp,209.02,4,5,20,10.451,Wang,http://dx.doi.org/10.1021/jp809049s,164751,0.05718040482,62,8
,116,700,0.000153302,-0.000123847,1.75635,0.03987586675,0.000123847,0.07003597857,0.000100051398,Ca0.9Tb0.1MnO3,Ca1-xTbxMnO3,0.1,CaMnO3,6523.072106,Solid state reaction,polycrystalline,Flahaut2006JAP,http://dx.doi.org/10.1063/1.2362922,Seebeck enhanced w/ Temp,209.02,4,5,20,10.451,Wang,http://dx.doi.org/10.1021/jp809049s,164751,0.06343500531,62,8
,117,1000,0.000183962,-0.000130035,1.84225,0.04989348458,0.000130035,0.09191627197,0.00009191627197,Ca0.9Tb0.1MnO3,Ca1-xTbxMnO3,0.1,CaMnO3,5435.905241,Solid state reaction,polycrystalline,Flahaut2006JAP,http://dx.doi.org/10.1063/1.2362922,Seebeck enhanced w/ Temp,209.02,4,5,20,10.451,Wang,http://dx.doi.org/10.1021/jp809049s,164751,0.07199679082,62,8
,118,400,0.0000698113,-0.000090279,2.06759,0.02258620797,0.000090279,0.04669901773,0.0001167475443,Ca0.9Ho0.1MnO3,Ca1-xHoxMnO3,0.1,CaMnO3,14324.32858,Solid state reaction,polycrystalline,Flahaut2006JAP,http://dx.doi.org/10.1063/1.2362922,Seebeck enhanced w/ Temp,208.44,4,5,20,10.422,Wang,http://dx.doi.org/10.1021/jp809049s,164753,0.06761758713,62,8
,119,700,0.0000981132,-0.000123847,2.18525,0.05007724779,0.000123847,0.1094313057,0.0001563304368,Ca0.9Ho0.1MnO3,Ca1-xHoxMnO3,0.1,CaMnO3,10192.30848,Solid state reaction,polycrystalline,Flahaut2006JAP,http://dx.doi.org/10.1063/1.2362922,Seebeck enhanced w/ Temp,208.44,4,5,20,10.422,Wang,http://dx.doi.org/10.1021/jp809049s,164753,0.07966348417,62,8
,120,1000,0.000125,-0.000130035,2.23936,0.06040690635,0.000130035,0.1352728098,0.0001352728098,Ca0.9Ho0.1MnO3,Ca1-xHoxMnO3,0.1,CaMnO3,8000,Solid state reaction,polycrystalline,Flahaut2006JAP,http://dx.doi.org/10.1063/1.2362922,Seebeck enhanced w/ Temp,208.44,4,5,20,10.422,Wang,http://dx.doi.org/10.1021/jp809049s,164753,0.08716776222,62,8
,121,400,0.000040566,-0.000090279,1.63871,0.0490421138,0.000090279,0.08036580231,0.0002009145058,Ca0.9Yb0.1MnO3,Ca1-xYbxMnO3,0.1,CaMnO3,24651.18572,Solid state reaction,polycrystalline,Flahaut2006JAP,http://dx.doi.org/10.1063/1.2362922,Seebeck enhanced w/ Temp,207.52,4,5,20,10.376,Wang,http://dx.doi.org/10.1021/jp809049s,164755,0.146820104,62,8
,122,700,0.0000599057,-0.000123847,1.60943,0.1113598872,0.000123847,0.1792259432,0.0002560370617,Ca0.9Yb0.1MnO3,Ca1-xYbxMnO3,0.1,CaMnO3,16692.90234,Solid state reaction,polycrystalline,Flahaut2006JAP,http://dx.doi.org/10.1063/1.2362922,Seebeck enhanced w/ Temp,207.52,4,5,20,10.376,Wang,http://dx.doi.org/10.1021/jp809049s,164755,0.1771526392,62,8
,123,1000,0.0000825472,-0.000130035,1.58808,0.1289869581,0.000130035,0.2048416085,0.0002048416085,Ca0.9Yb0.1MnO3,Ca1-xYbxMnO3,0.1,CaMnO3,12114.28128,Solid state reaction,polycrystalline,Flahaut2006JAP,http://dx.doi.org/10.1063/1.2362922,Seebeck enhanced w/ Temp,207.52,4,5,20,10.376,Wang,http://dx.doi.org/10.1021/jp809049s,164755,0.186129454,62,8
,124,400,0.00460937,-0.000600164,2.97299,0.01051392452,0.000600164,0.03125779244,0.00007814448111,CaMnO3,CaMnO3,0,CaMnO3,216.9493879,Solid state reaction,polycrystalline,Flahaut2006JAP,http://dx.doi.org/10.1063/1.2362922,Seebeck enhanced w/ Temp,206.97,4,5,20,10.3485,Poeppelmeier,http://dx.doi.org/10.1016/0022-4596(82)90292-4,35218,0.0007122210386,62,8
,125,700,0.00233107,-0.0003748,2.16539,0.01948075401,0.0003748,0.04218342993,0.00006026204275,CaMnO3,CaMnO3,0,CaMnO3,428.9875465,Solid state reaction,polycrystalline,Flahaut2006JAP,http://dx.doi.org/10.1063/1.2362922,Seebeck enhanced w/ Temp,206.97,4,5,20,10.3485,Poeppelmeier,http://dx.doi.org/10.1016/0022-4596(82)90292-4,35218,0.003383735629,62,8
,126,1000,0.000834071,-0.000320527,2.09242,0.05886773872,0.000320527,0.1231760338,0.0001231760338,CaMnO3,CaMnO3,0,CaMnO3,1198.938699,Solid state reaction,polycrystalline,Flahaut2006JAP,http://dx.doi.org/10.1063/1.2362922,Seebeck enhanced w/ Temp,206.97,4,5,20,10.3485,Poeppelmeier,http://dx.doi.org/10.1016/0022-4596(82)90292-4,35218,0.01398099056,62,8
,127,300,0.0000576296,-0.0000749841,1.48358962,0.01972878,0.0000749841,0.02926941322,0.00009756471072,Ca0.9Tb0.1MnO3,Ca1-xTbxMnO3,0.1,CaMnO3,17352.19401,Solid state reaction,polycrystalline,Kobayashi1991JSSC,http://dx.doi.org/10.1016/0022-4596(91)90248-G,,209.58,4,5,20,10.479,Kobayashi,http://dx.doi.org/10.1016/0022-4596(91)90248-G,69824,0.08561536053,62,8
,128,400,0.0000638941,-0.0000938197,1.571097028,0.03507392,0.0000938197,0.05510453145,0.0001377613286,Ca0.9Tb0.1MnO3,Ca1-xTbxMnO3,0.1,CaMnO3,15650.89734,Solid state reaction,polycrystalline,Kobayashi1991JSSC,http://dx.doi.org/10.1016/0022-4596(91)90248-G,,209.58,4,5,20,10.479,Kobayashi,http://dx.doi.org/10.1016/0022-4596(91)90248-G,69824,0.09722681375,62,8
,129,700,0.0000831725,-0.000124551,1.574660559,0.0829136,0.000124551,0.1305607757,0.0001865153939,Ca0.9Tb0.1MnO3,Ca1-xTbxMnO3,0.1,CaMnO3,12023.20479,Solid state reaction,polycrystalline,Kobayashi1991JSSC,http://dx.doi.org/10.1016/0022-4596(91)90248-G,,209.58,4,5,20,10.479,Kobayashi,http://dx.doi.org/10.1016/0022-4596(91)90248-G,69824,0.1304130827,62,8
,130,1000,0.000102451,-0.000152373,1.604043252,0.141281,0.000152373,0.2266208346,0.0002266208346,Ca0.9Tb0.1MnO3,Ca1-xTbxMnO3,0.1,CaMnO3,9760.763682,Solid state reaction,polycrystalline,Kobayashi1991JSSC,http://dx.doi.org/10.1016/0022-4596(91)90248-G,,209.58,4,5,20,10.479,Kobayashi,http://dx.doi.org/10.1016/0022-4596(91)90248-G,69824,0.1484764414,62,8
,131,300,0.0000607036,-0.0000463052,2.170001556,0.00488322,0.0000463052,0.010596595,0.00003532198333,Ca0.7Tb0.3MnO3,Ca1-xTbxMnO3,0.3,CaMnO3,16473.48757,Solid state reaction,polycrystalline,Kobayashi1991JSSC,http://dx.doi.org/10.1016/0022-4596(91)90248-G,,213.15,4,5,20,10.6575,Kobayashi,http://dx.doi.org/10.1016/0022-4596(91)90248-G,69826,0.05556951269,62,8
,132,400,0.0000549942,-0.0000443557,1.465854004,0.00976228,0.0000443557,0.01431007723,0.00003577519307,Ca0.7Tb0.3MnO3,Ca1-xTbxMnO3,0.3,CaMnO3,18183.73574,Solid state reaction,polycrystalline,Kobayashi1991JSSC,http://dx.doi.org/10.1016/0022-4596(91)90248-G,,213.15,4,5,20,10.6575,Kobayashi,http://dx.doi.org/10.1016/0022-4596(91)90248-G,69826,0.1210715803,62,8
,133,700,0.0000525905,-0.0000553448,1.462482104,0.0278775,0.0000553448,0.04077034485,0.00005824334979,Ca0.7Tb0.3MnO3,Ca1-xTbxMnO3,0.3,CaMnO3,19014.84108,Solid state reaction,polycrystalline,Kobayashi1991JSSC,http://dx.doi.org/10.1016/0022-4596(91)90248-G,,213.15,4,5,20,10.6575,Kobayashi,http://dx.doi.org/10.1016/0022-4596(91)90248-G,69826,0.222070058,62,8
,134,1000,0.0000558501,-0.0000682042,1.680820436,0.0495538,0.0000682042,0.08329103972,0.00008329103972,Ca0.7Tb0.3MnO3,Ca1-xTbxMnO3,0.3,CaMnO3,17905.0709,Solid state reaction,polycrystalline,Kobayashi1991JSSC,http://dx.doi.org/10.1016/0022-4596(91)90248-G,,213.15,4,5,20,10.6575,Kobayashi,http://dx.doi.org/10.1016/0022-4596(91)90248-G,69826,0.2599229046,62,8
,135,300,0.0000669346,-0.0000720144,1.637290898,0.01419657,0.0000720144,0.02324391484,0.00007747971613,Ca0.9Ho0.1MnO3,Ca1-xHoxMnO3,0.1,CaMnO3,14939.95632,Solid state reaction,polycrystalline,Kobayashi1991JSSC,http://dx.doi.org/10.1016/0022-4596(91)90248-G,,209.04,4,5,20,10.452,Sousa,http://dx.doi.org/10.1016/j.matchemphys.2007.11.032,160306,0.06679355537,62,8
,136,400,0.0000739839,-0.0000817903,1.545616006,0.02340048,0.0000817903,0.03616815645,0.00009042039111,Ca0.9Ho0.1MnO3,Ca1-xHoxMnO3,0.1,CaMnO3,13516.45426,Solid state reaction,polycrystalline,Kobayashi1991JSSC,http://dx.doi.org/10.1016/0022-4596(91)90248-G,,209.04,4,5,20,10.452,Sousa,http://dx.doi.org/10.1016/j.matchemphys.2007.11.032,160306,0.08535146698,62,8
,137,700,0.0000949715,-0.000101469,1.518351106,0.04998035,0.000101469,0.07588771971,0.0001084110282,Ca0.9Ho0.1MnO3,Ca1-xHoxMnO3,0.1,CaMnO3,10529.47463,Solid state reaction,polycrystalline,Kobayashi1991JSSC,http://dx.doi.org/10.1016/0022-4596(91)90248-G,,209.04,4,5,20,10.452,Sousa,http://dx.doi.org/10.1016/j.matchemphys.2007.11.032,160306,0.1184465345,62,8
,138,1000,0.000115796,-0.000114579,1.470944215,0.0770762,0.000114579,0.1133747905,0.0001133747905,Ca0.9Ho0.1MnO3,Ca1-xHoxMnO3,0.1,CaMnO3,8635.876887,Solid state reaction,polycrystalline,Kobayashi1991JSSC,http://dx.doi.org/10.1016/0022-4596(91)90248-G,,209.04,4,5,20,10.452,Sousa,http://dx.doi.org/10.1016/j.matchemphys.2007.11.032,160306,0.1432517929,62,8
,139,300,0.0000511856,-0.0000436909,2.143851851,0.00521868,0.0000436909,0.01118807678,0.00003729358927,Ca0.7Ho0.3MnO3,Ca1-xHoxMnO3,0.3,CaMnO3,19536.74471,Solid state reaction,polycrystalline,Kobayashi1991JSSC,http://dx.doi.org/10.1016/0022-4596(91)90248-G,,212.3,4,5,20,10.615,Sousa,http://dx.doi.org/10.1016/j.matchemphys.2007.11.032,160308,0.06670655492,11,4
,140,400,0.000043952,-0.0000450509,1.524264065,0.01211792,0.0000450509,0.01847091,0.000046177275,Ca0.7Ho0.3MnO3,Ca1-xHoxMnO3,0.3,CaMnO3,22752.09319,Solid state reaction,polycrystalline,Kobayashi1991JSSC,http://dx.doi.org/10.1016/0022-4596(91)90248-G,,212.3,4,5,20,10.615,Sousa,http://dx.doi.org/10.1016/j.matchemphys.2007.11.032,160308,0.1456837005,11,4
,141,700,0.0000376682,-0.0000509774,1.416678012,0.03408846,0.0000509774,0.04829237175,0.0000689891025,Ca0.7Ho0.3MnO3,Ca1-xHoxMnO3,0.3,CaMnO3,26547.59187,Solid state reaction,polycrystalline,Kobayashi1991JSSC,http://dx.doi.org/10.1016/0022-4596(91)90248-G,,212.3,4,5,20,10.615,Sousa,http://dx.doi.org/10.1016/j.matchemphys.2007.11.032,160308,0.3200676973,11,4
,142,1000,0.0000422589,-0.0000647034,1.599402623,0.061941,0.0000647034,0.09906859789,0.00009906859789,Ca0.7Ho0.3MnO3,Ca1-xHoxMnO3,0.3,CaMnO3,23663.65428,Solid state reaction,polycrystalline,Kobayashi1991JSSC,http://dx.doi.org/10.1016/0022-4596(91)90248-G,,212.3,4,5,20,10.615,Sousa,http://dx.doi.org/10.1016/j.matchemphys.2007.11.032,160308,0.361005513,11,4
,143,300,0.0000437499,-0.0000705317,1.488878233,0.02291151,0.0000705317,0.03411244852,0.0001137081617,Ca0.9Y0.1MnO3,Ca1-xYxMnO3,0.1,CaMnO3,22857.1951,Solid state reaction,polycrystalline,Kobayashi1991JSSC,http://dx.doi.org/10.1016/0022-4596(91)90248-G,,212.3,4,5,20,10.615,Sousa,http://dx.doi.org/10.1016/j.matchemphys.2007.11.032,160308,0.1123763277,11,4
,144,400,0.0000477637,-0.0000817144,1.482392228,0.03772212,0.0000817144,0.05591897753,0.0001397974438,Ca0.9Y0.1MnO3,Ca1-xYxMnO3,0.1,CaMnO3,20936.40149,Solid state reaction,polycrystalline,Kobayashi1991JSSC,http://dx.doi.org/10.1016/0022-4596(91)90248-G,,212.3,4,5,20,10.615,Sousa,http://dx.doi.org/10.1016/j.matchemphys.2007.11.032,160308,0.1378442727,11,4
,145,700,0.0000591553,-0.000112784,1.600767692,0.094031,0.000112784,0.1505217869,0.0002150311241,Ca0.9Y0.1MnO3,Ca1-xYxMnO3,0.1,CaMnO3,16904.65605,Solid state reaction,polycrystalline,Kobayashi1991JSSC,http://dx.doi.org/10.1016/0022-4596(91)90248-G,,212.3,4,5,20,10.615,Sousa,http://dx.doi.org/10.1016/j.matchemphys.2007.11.032,160308,0.1803706601,11,4
,146,1000,0.0000710372,-0.00013559,1.629157717,0.158857,0.00013559,0.2588031074,0.0002588031074,Ca0.9Y0.1MnO3,Ca1-xYxMnO3,0.1,CaMnO3,14077.13142,Solid state reaction,polycrystalline,Kobayashi1991JSSC,http://dx.doi.org/10.1016/0022-4596(91)90248-G,,212.3,4,5,20,10.615,Sousa,http://dx.doi.org/10.1016/j.matchemphys.2007.11.032,160308,0.2108341035,11,4
,147,300,0.0000762653,-0.0000416059,1.793253904,0.00379719,0.0000416059,0.006809325794,0.00002269775265,Ca0.7Y0.3MnO3,Ca1-xYxMnO3,0.3,CaMnO3,13112.12308,Solid state reaction,polycrystalline,Kobayashi1991JSSC,http://dx.doi.org/10.1016/0022-4596(91)90248-G,,219.83,4,5,20,10.9915,Dlouha,http://dx.doi.org/10.1007/s003390101141,97601,0.05352322985,62,8
,148,400,0.0000649209,-0.0000416315,1.46749541,0.00727684,0.0000416315,0.0106787293,0.00002669682325,Ca0.7Y0.3MnO3,Ca1-xYxMnO3,0.3,CaMnO3,15403.36009,Solid state reaction,polycrystalline,Kobayashi1991JSSC,http://dx.doi.org/10.1016/0022-4596(91)90248-G,,219.83,4,5,20,10.9915,Dlouha,http://dx.doi.org/10.1007/s003390101141,97601,0.1024444734,62,8
,149,700,0.0000627506,-0.000052453,1.514920146,0.02025961,0.000052453,0.03069169134,0.00004384527334,Ca0.7Y0.3MnO3,Ca1-xYxMnO3,0.3,CaMnO3,15936.1026,Solid state reaction,polycrystalline,Kobayashi1991JSSC,http://dx.doi.org/10.1016/0022-4596(91)90248-G,,219.83,4,5,20,10.9915,Dlouha,http://dx.doi.org/10.1007/s003390101141,97601,0.179671934,62,8
,150,1000,0.0000707093,-0.0000607951,1.536920596,0.0340102,0.0000607951,0.05227097686,0.00005227097686,Ca0.7Y0.3MnO3,Ca1-xYxMnO3,0.3,CaMnO3,14142.41125,Solid state reaction,polycrystalline,Kobayashi1991JSSC,http://dx.doi.org/10.1016/0022-4596(91)90248-G,,219.83,4,5,20,10.9915,Dlouha,http://dx.doi.org/10.1007/s003390101141,97601,0.224523528,62,8
,151,300,0.00000433737,-0.000026,3.78035,0.01236828457,0.000026,0.04675644457,0.0001558548152,BaPbO3,Ba1-xSrxPbO3,0,BaPbO3,230554.4604,Solid state reaction (under oxygen),polycrystalline,Yasukawa1997JMSL,http://dx.doi.org/10.1023/A:1018515223271,Extrapolated from 320 K,311.43,4,5,20,15.5715,Moussa,http://dx.doi.org/10.1016/S0038-1098(01)00265-4,94312,0.4464292064,74,16
,152,400,0.00000509409,-0.0000319806,4.15607,0.01932340867,0.0000319806,0.08030943908,0.0002007735977,BaPbO3,Ba1-xSrxPbO3,0,BaPbO3,196305.9153,Solid state reaction (under oxygen),polycrystalline,Yasukawa1997JMSL,http://dx.doi.org/10.1023/A:1018515223271,,311.43,4,5,20,15.5715,Moussa,http://dx.doi.org/10.1016/S0038-1098(01)00265-4,94312,0.4609993896,74,16
,153,700,0.00000526685,-0.0000336152,5.11561,0.02935763466,0.0000336152,0.1501822094,0.0002145460135,BaPbO3,Ba1-xSrxPbO3,0,BaPbO3,189866.8084,Solid state reaction (under oxygen),polycrystalline,Yasukawa1997JMSL,http://dx.doi.org/10.1023/A:1018515223271,,311.43,4,5,20,15.5715,Moussa,http://dx.doi.org/10.1016/S0038-1098(01)00265-4,94312,0.6339273494,74,16
,154,1000,0.00000858552,-0.0000301729,,,0.0000301729,0.1060394588,0.0001060394588,BaPbO3,Ba1-xSrxPbO3,0,BaPbO3,116475.1815,Solid state reaction (under oxygen),polycrystalline,Yasukawa1997JMSL,http://dx.doi.org/10.1023/A:1018515223271,,311.43,4,5,20,15.5715,Moussa,http://dx.doi.org/10.1016/S0038-1098(01)00265-4,94312,,74,16
,155,300,0.00000462332,-0.0000244615,2.74566,0.01414121462,0.0000244615,0.03882696735,0.0001294232245,Ba0.8Sr0.2PbO3,Ba1-xSrxPbO3,0.2,BaPbO3,216294.7838,Solid state reaction (under oxygen),polycrystalline,Yasukawa1997JMSL,http://dx.doi.org/10.1023/A:1018515223271,Extrapolated from 320 K,311.43,4,5,20,15.5715,Moussa,http://dx.doi.org/10.1016/S0038-1098(01)00265-4,94312,0.5766474428,74,16
,156,400,0.00000476044,-0.0000302883,3.30636,0.02331377248,0.0000302883,0.07708372477,0.0001927093119,Ba0.8Sr0.2PbO3,Ba1-xSrxPbO3,0.2,BaPbO3,210064.6159,Solid state reaction (under oxygen),polycrystalline,Yasukawa1997JMSL,http://dx.doi.org/10.1023/A:1018515223271,,311.43,4,5,20,15.5715,Moussa,http://dx.doi.org/10.1016/S0038-1098(01)00265-4,94312,0.6200869388,74,16
,157,700,0.00000550518,-0.000041769,4.0289,0.05506151849,0.000041769,0.2218373519,0.0003169105027,Ba0.8Sr0.2PbO3,Ba1-xSrxPbO3,0.2,BaPbO3,181647.1033,Solid state reaction (under oxygen),polycrystalline,Yasukawa1997JMSL,http://dx.doi.org/10.1023/A:1018515223271,,311.43,4,5,20,15.5715,Moussa,http://dx.doi.org/10.1016/S0038-1098(01)00265-4,94312,0.7700693797,74,16
,158,1000,0.00000601159,-0.0000337114,,,0.0000337114,0.1890445772,0.0001890445772,Ba0.8Sr0.2PbO3,Ba1-xSrxPbO3,0.2,BaPbO3,166345.3429,Solid state reaction (under oxygen),polycrystalline,Yasukawa1997JMSL,http://dx.doi.org/10.1023/A:1018515223271,,311.43,4,5,20,15.5715,Moussa,http://dx.doi.org/10.1016/S0038-1098(01)00265-4,94312,,74,16
,159,300,0.0000130601,-0.000042,2.30636,0.01756896736,0.000042,0.04052036355,0.0001350678785,Ba0.6Sr0.4PbO3,Ba1-xSrxPbO3,0.4,BaPbO3,76569.09212,Solid state reaction (under oxygen),polycrystalline,Yasukawa1997JMSL,http://dx.doi.org/10.1023/A:1018515223271,Extrapolated from 320 K,301.96,4,5,20,15.098,Ksepko,http://dx.doi.org/10.1080/01411590410001667635,151609,0.2430174623,62,8
,160,400,0.0000127204,-0.0000513654,2.36416,0.03509325943,0.0000513654,0.08296608022,0.0002074152006,Ba0.6Sr0.4PbO3,Ba1-xSrxPbO3,0.4,BaPbO3,78613.88007,Solid state reaction (under oxygen),polycrystalline,Yasukawa1997JMSL,http://dx.doi.org/10.1023/A:1018515223271,,301.96,4,5,20,15.098,Ksepko,http://dx.doi.org/10.1080/01411590410001667635,151609,0.3245429537,62,8
,161,700,0.0000117492,-0.0000657691,2.44509,0.1053995342,0.0000657691,0.2577113472,0.0003681590674,Ba0.6Sr0.4PbO3,Ba1-xSrxPbO3,0.4,BaPbO3,85112.17785,Solid state reaction (under oxygen),polycrystalline,Yasukawa1997JMSL,http://dx.doi.org/10.1023/A:1018515223271,,301.96,4,5,20,15.098,Ksepko,http://dx.doi.org/10.1080/01411590410001667635,151609,0.5945449851,62,8
,162,1000,0.0000068696,-0.0000397112,,,0.0000397112,0.2295591309,0.0002295591309,Ba0.6Sr0.4PbO3,Ba1-xSrxPbO3,0.4,BaPbO3,145568.8832,Solid state reaction (under oxygen),polycrystalline,Yasukawa1997JMSL,http://dx.doi.org/10.1023/A:1018515223271,,79.51,1,5,5,15.902,Ksepko,http://dx.doi.org/10.1080/01411590410001667635,151610,,221,48
,163,300,0.0000412774,-0.0000827692,2.2948,0.02169709521,0.0000827692,0.04979049409,0.0001659683136,Ba0.4Sr0.6PbO3,Ba1-xSrxPbO3,0.6,BaPbO3,24226.33208,Solid state reaction (under oxygen),polycrystalline,Yasukawa1997JMSL,http://dx.doi.org/10.1023/A:1018515223271,Extrapolated from 320 K,301.96,4,5,20,15.098,Ksepko,http://dx.doi.org/10.1080/01411590410001667635,151609,0.07727764984,62,8
,164,400,0.0000395079,-0.0000964421,2.13295,0.0441497946,0.0000964421,0.09416930439,0.000235423261,Ba0.4Sr0.6PbO3,Ba1-xSrxPbO3,0.6,BaPbO3,25311.39342,Solid state reaction (under oxygen),polycrystalline,Yasukawa1997JMSL,http://dx.doi.org/10.1023/A:1018515223271,,301.96,4,5,20,15.098,Ksepko,http://dx.doi.org/10.1080/01411590410001667635,151609,0.1158204364,62,8