# Outliers,Original Index,Temperature (K),Electrical Resistivity (Ohm m),Seebeck Coefficient (V/K),Thermal Conductivity (W/(m K)),Figure of Merit,Thermopower (V/K),Thermal Conductivity x Figure of Merit (W/m K),Power Factor (W/(K^2 m)),Formula,Series,Series Index,Family,Electrical Conductivity (S/m),Preparative Route,Final Form,Authors,DOI,Comments,Cell Volume (A^3),Formula Units per Cell,Atoms per Formula Unit,Total Atoms Per Unit Cell,Average Atomic Volume,Author of Unit Cell,Unit Cell DOI,ICSD ID,Electronic over Total Thermal Conductivity,Space Group,Number of Symmetry Elements
,743,700,0.000013186,-0.000274,2.963660104,1.3448,0.000274,3.985530108,0.00569361444,Zr0.5Hf0.5NiSn1.994Sb0.006,Tix(Zr0.5Hf0.5)1-xNiSn1-xSbx,0.006,TiNiSn,,"arc-melted, Ar",polycrystalline,Shutoh2005JAC,http://dx.doi.org/10.1016/j.jallcom.2004.05.078,,226.87,4,3,12,18.90583333,Skolozdra,http://dx.doi.org/10.1016/0304-8853(93)90861-U,646828,0.4370653738,216,96
,744,300,0.0000877175,-0.000181756,,,0.000181756,0.112982849,0.0003766094968,Zr0.4Hf0.4Ti0.2NiSn,Tix(Zr0.5Hf0.5)1-xNiSn,0.2,TiNiSn,,"arc-melted, Ar",polycrystalline,Shutoh2005JAC,http://dx.doi.org/10.1016/j.jallcom.2004.05.078,,226.87,4,3,12,18.90583333,Skolozdra,http://dx.doi.org/10.1016/0304-8853(93)90861-U,646828,,216,96
,745,700,0.000021511,-0.000287251,,,0.000287251,2.685100456,0.003835857794,Zr0.4Hf0.4Ti0.2NiSn,Tix(Zr0.5Hf0.5)1-xNiSn,0.2,TiNiSn,,"arc-melted, Ar",polycrystalline,Shutoh2005JAC,http://dx.doi.org/10.1016/j.jallcom.2004.05.078,,226.87,4,3,12,18.90583333,Skolozdra,http://dx.doi.org/10.1016/0304-8853(93)90861-U,646828,,216,96
,746,300,0.0000841046,-0.000329724,,,0.000329724,0.3877953745,0.001292651248,Zr0.35Hf0.35Ti0.3NiSn,Tix(Zr0.5Hf0.5)1-xNiSn,0.3,TiNiSn,,"arc-melted, Ar",polycrystalline,Shutoh2005JAC,http://dx.doi.org/10.1016/j.jallcom.2004.05.078,,226.87,4,3,12,18.90583333,Skolozdra,http://dx.doi.org/10.1016/0304-8853(93)90861-U,646828,,216,96
,747,700,0.0000234825,-0.000345217,,,0.000345217,3.55253248,0.0050750464,Zr0.35Hf0.35Ti0.3NiSn,Tix(Zr0.5Hf0.5)1-xNiSn,0.3,TiNiSn,,"arc-melted, Ar",polycrystalline,Shutoh2005JAC,http://dx.doi.org/10.1016/j.jallcom.2004.05.078,,226.87,4,3,12,18.90583333,Skolozdra,http://dx.doi.org/10.1016/0304-8853(93)90861-U,646828,,216,96
,748,300,0.0000845644,-0.000316151,,,0.000316151,0.3545869945,0.001181956648,Zr0.3Hf0.3Ti0.4NiSn,Tix(Zr0.5Hf0.5)1-xNiSn,0.4,TiNiSn,,"arc-melted, Ar",polycrystalline,Shutoh2005JAC,http://dx.doi.org/10.1016/j.jallcom.2004.05.078,,226.87,4,3,12,18.90583333,Skolozdra,http://dx.doi.org/10.1016/0304-8853(93)90861-U,646828,,216,96
,749,700,0.0000203291,-0.000358019,,,0.000358019,4.413590521,0.006305129315,Zr0.3Hf0.3Ti0.4NiSn,Tix(Zr0.5Hf0.5)1-xNiSn,0.4,TiNiSn,,"arc-melted, Ar",polycrystalline,Shutoh2005JAC,http://dx.doi.org/10.1016/j.jallcom.2004.05.078,,226.87,4,3,12,18.90583333,Skolozdra,http://dx.doi.org/10.1016/0304-8853(93)90861-U,646828,,216,96
,750,300,0.0000494914,-0.000303567,,,0.000303567,0.5585996162,0.001861998721,Zr0.25Hf0.25Ti0.5NiSn,Tix(Zr0.5Hf0.5)1-xNiSn,0.5,TiNiSn,,"arc-melted, Ar",polycrystalline,Shutoh2005JAC,http://dx.doi.org/10.1016/j.jallcom.2004.05.078,,226.87,4,3,12,18.90583333,Skolozdra,http://dx.doi.org/10.1016/0304-8853(93)90861-U,646828,,216,96
,751,700,0.0000188843,-0.000333898,,,0.000333898,4.132613445,0.005903733493,Zr0.25Hf0.25Ti0.5NiSn,Tix(Zr0.5Hf0.5)1-xNiSn,0.5,TiNiSn,,"arc-melted, Ar",polycrystalline,Shutoh2005JAC,http://dx.doi.org/10.1016/j.jallcom.2004.05.078,,226.87,4,3,12,18.90583333,Skolozdra,http://dx.doi.org/10.1016/0304-8853(93)90861-U,646828,,216,96
,752,300,0.0000467326,-0.000250711,,,0.000250711,0.4035042274,0.001345014091,Zr0.15Hf0.15Ti0.7NiSn,Tix(Zr0.5Hf0.5)1-xNiSn,0.7,TiNiSn,,"arc-melted, Ar",polycrystalline,Shutoh2005JAC,http://dx.doi.org/10.1016/j.jallcom.2004.05.078,,226.87,4,3,12,18.90583333,Skolozdra,http://dx.doi.org/10.1016/0304-8853(93)90861-U,646828,,216,96
,753,700,0.000016849,-0.000260931,,,0.000260931,2.828624294,0.004040891849,Zr0.15Hf0.15Ti0.7NiSn,Tix(Zr0.5Hf0.5)1-xNiSn,0.7,TiNiSn,,"arc-melted, Ar",polycrystalline,Shutoh2005JAC,http://dx.doi.org/10.1016/j.jallcom.2004.05.078,,226.87,4,3,12,18.90583333,Skolozdra,http://dx.doi.org/10.1016/0304-8853(93)90861-U,646828,,216,96
,754,300,0.00004618297695,-0.0000635492,7.96,0.003295690638,0.0000635492,0.02623369748,0.00008744565827,SrTi0.8Nb0.2O3,SrTi1-xNbxO3,0.2,SrTiO3,,"solid state reaction, air",polycrystalline,Sonne2010,http://orbit.dtu.dk/en/publications/improvement-of-niobium-doped-srtio3-by-nanostructuring(2b6f4b33-1a6f-4472-ac18-6996f91cd743).html,,60.64,1,5,5,12.128,Brant,http://dx.doi.org/10.1016/j.jssc.2010.06.002,174464,0.01991205528,221,48
,755,400,0.00004541078597,-0.0000769741,8.57,0.006089889186,0.0000769741,0.05219035033,0.0001304758758,SrTi0.8Nb0.2O3,SrTi1-xNbxO3,0.2,SrTiO3,,"solid state reaction, air",polycrystalline,Sonne2010,http://orbit.dtu.dk/en/publications/improvement-of-niobium-doped-srtio3-by-nanostructuring(2b6f4b33-1a6f-4472-ac18-6996f91cd743).html,,60.64,1,5,5,12.128,Brant,http://dx.doi.org/10.1016/j.jssc.2010.06.002,174464,0.02507898623,221,48
,756,700,0.00004614717256,-0.000122314,6.14,0.03696042104,0.000122314,0.2269369852,0.0003241956932,SrTi0.8Nb0.2O3,SrTi1-xNbxO3,0.2,SrTiO3,,"solid state reaction, air",polycrystalline,Sonne2010,http://orbit.dtu.dk/en/publications/improvement-of-niobium-doped-srtio3-by-nanostructuring(2b6f4b33-1a6f-4472-ac18-6996f91cd743).html,,60.64,1,5,5,12.128,Brant,http://dx.doi.org/10.1016/j.jssc.2010.06.002,174464,0.06028016026,221,48
,757,1000,0.00005626132259,-0.000163115,2.555,0.1850917063,0.000163115,0.4729093096,0.0004729093096,SrTi0.8Nb0.2O3,SrTi1-xNbxO3,0.2,SrTiO3,,"solid state reaction, air",polycrystalline,Sonne2010,http://orbit.dtu.dk/en/publications/improvement-of-niobium-doped-srtio3-by-nanostructuring(2b6f4b33-1a6f-4472-ac18-6996f91cd743).html,,60.64,1,5,5,12.128,Brant,http://dx.doi.org/10.1016/j.jssc.2010.06.002,174464,0.1697418708,221,48
,758,300,0.00009615384615,-0.0000497,4.195,0.001837111037,0.0000497,0.0077066808,0.000025688936,SrDy0.08Ti0.92O3,SrDyxTi1-yNbyO3,,DyTiO3,,"solid state reaction, air",polycrystalline,Tinh2009,http://dx.doi.org/10.1007/978-3-540-88201-5_24,,60.64,1,5,5,12.128,Brant,http://dx.doi.org/10.1016/j.jssc.2010.06.002,174464,0.01814731824,221,48
,759,400,0.00004,-0.0000705,3.74,0.0132894385,0.0000705,0.0497025,0.00012425625,SrDy0.08Ti0.92O3,SrDyxTi1-yNbyO3,,DyTiO3,,"solid state reaction, air",polycrystalline,Tinh2009,http://dx.doi.org/10.1007/978-3-540-88201-5_24,,60.64,1,5,5,12.128,Brant,http://dx.doi.org/10.1016/j.jssc.2010.06.002,174464,0.06524064171,221,48
,760,700,0.00004587155963,-0.000147,3.17,0.1040231356,0.000147,0.32975334,0.0004710762,SrDy0.08Ti0.92O3,SrDyxTi1-yNbyO3,,DyTiO3,,"solid state reaction, air",polycrystalline,Tinh2009,http://dx.doi.org/10.1007/978-3-540-88201-5_24,,60.64,1,5,5,12.128,Brant,http://dx.doi.org/10.1016/j.jssc.2010.06.002,174464,0.1174586751,221,48
,761,1000,0.00008333333333,-0.0001916,2.97,0.1483254949,0.0001916,0.44052672,0.00044052672,SrDy0.08Ti0.92O3,SrDyxTi1-yNbyO3,,DyTiO3,,"solid state reaction, air",polycrystalline,Tinh2009,http://dx.doi.org/10.1007/978-3-540-88201-5_24,,60.64,1,5,5,12.128,Brant,http://dx.doi.org/10.1016/j.jssc.2010.06.002,174464,0.09858585859,221,48
,762,300,0.00002597402597,-0.0000325,6.19,0.001970870355,0.0000325,0.0121996875,0.000040665625,SrNd0.17Ti0.83O3,SrDyxTi1-yNbyO3,,DyTiO3,,"solid state reaction, air",polycrystalline,Tinh2009,http://dx.doi.org/10.1007/978-3-540-88201-5_24,,60.64,1,5,5,12.128,Brant,http://dx.doi.org/10.1016/j.jssc.2010.06.002,174464,0.04552827141,221,48
,763,400,0.00001926782274,-0.0000422,5.35,0.006910324935,0.0000422,0.0369702384,0.000092425596,SrNd0.17Ti0.83O3,SrDyxTi1-yNbyO3,,DyTiO3,,"solid state reaction, air",polycrystalline,Tinh2009,http://dx.doi.org/10.1007/978-3-540-88201-5_24,,60.64,1,5,5,12.128,Brant,http://dx.doi.org/10.1016/j.jssc.2010.06.002,174464,0.0946811215,221,48
,764,700,0.0000226963232,-0.000096,3.87,0.07344699535,0.000096,0.284239872,0.00040605696,SrNd0.17Ti0.83O3,SrDyxTi1-yNbyO3,,DyTiO3,,"solid state reaction, air",polycrystalline,Tinh2009,http://dx.doi.org/10.1007/978-3-540-88201-5_24,,60.64,1,5,5,12.128,Brant,http://dx.doi.org/10.1016/j.jssc.2010.06.002,174464,0.1944560207,221,48
,765,1000,0.00004184100418,-0.0001418,3.397,0.1414668931,0.0001418,0.480563036,0.000480563036,SrNd0.17Ti0.83O3,SrDyxTi1-yNbyO3,,DyTiO3,,"solid state reaction, air",polycrystalline,Tinh2009,http://dx.doi.org/10.1007/978-3-540-88201-5_24,,60.64,1,5,5,12.128,Brant,http://dx.doi.org/10.1016/j.jssc.2010.06.002,174464,0.1716691198,221,48
,766,300,0.00001838235294,-0.0000344,5.53,0.003492302929,0.0000344,0.0193124352,0.000064374784,SrNd0.2Ti0.8O3,SrDyxTi1-yNbyO3,,DyTiO3,,"solid state reaction, air",polycrystalline,Tinh2009,http://dx.doi.org/10.1007/978-3-540-88201-5_24,,60.64,1,5,5,12.128,Brant,http://dx.doi.org/10.1016/j.jssc.2010.06.002,174464,0.07200867993,221,48
,767,400,0.00001474926254,-0.0000449,4.83,0.01131970832,0.0000449,0.0546741912,0.000136685478,SrNd0.2Ti0.8O3,SrDyxTi1-yNbyO3,,DyTiO3,,"solid state reaction, air",polycrystalline,Tinh2009,http://dx.doi.org/10.1007/978-3-540-88201-5_24,,60.64,1,5,5,12.128,Brant,http://dx.doi.org/10.1016/j.jssc.2010.06.002,174464,0.1370037267,221,48
,768,700,0.00001953125,-0.0000944,3.45,0.09257482388,0.0000944,0.3193831424,0.000456261632,SrNd0.2Ti0.8O3,SrDyxTi1-yNbyO3,,DyTiO3,,"solid state reaction, air",polycrystalline,Tinh2009,http://dx.doi.org/10.1007/978-3-540-88201-5_24,,60.64,1,5,5,12.128,Brant,http://dx.doi.org/10.1016/j.jssc.2010.06.002,174464,0.2534771014,221,48
,769,1000,0.0000395256917,-0.00014,3.1968,0.1551176176,0.00014,0.49588,0.00049588,SrNd0.2Ti0.8O3,SrDyxTi1-yNbyO3,,DyTiO3,,"solid state reaction, air",polycrystalline,Tinh2009,http://dx.doi.org/10.1007/978-3-540-88201-5_24,,60.64,1,5,5,12.128,Brant,http://dx.doi.org/10.1016/j.jssc.2010.06.002,174464,0.1931056056,221,48
,770,300,0.00002247191011,-0.0000226,5.98,0.001140241806,0.0000226,0.006818646,0.00002272882,SrNd0.24Ti0.76O3,SrDyxTi1-yNbyO3,,DyTiO3,,"solid state reaction, air",polycrystalline,Tinh2009,http://dx.doi.org/10.1007/978-3-540-88201-5_24,,60.64,1,5,5,12.128,Brant,http://dx.doi.org/10.1016/j.jssc.2010.06.002,174464,0.05447157191,221,48
,771,400,0.00001808318264,-0.0000315,5.29,0.004149068053,0.0000315,0.02194857,0.000054871425,SrNd0.24Ti0.76O3,SrDyxTi1-yNbyO3,,DyTiO3,,"solid state reaction, air",polycrystalline,Tinh2009,http://dx.doi.org/10.1007/978-3-540-88201-5_24,,60.64,1,5,5,12.128,Brant,http://dx.doi.org/10.1016/j.jssc.2010.06.002,174464,0.1020279773,221,48
,772,700,0.00001862197393,-0.0000807,3.76,0.06510757955,0.0000807,0.2448044991,0.000349720713,SrNd0.24Ti0.76O3,SrDyxTi1-yNbyO3,,DyTiO3,,"solid state reaction, air",polycrystalline,Tinh2009,http://dx.doi.org/10.1007/978-3-540-88201-5_24,,60.64,1,5,5,12.128,Brant,http://dx.doi.org/10.1016/j.jssc.2010.06.002,174464,0.2439351064,221,48
,773,1000,0.00003194888179,-0.000124,3.22,0.1494623602,0.000124,0.4812688,0.0004812688,SrNd0.24Ti0.76O3,SrDyxTi1-yNbyO3,,DyTiO3,,"solid state reaction, air",polycrystalline,Tinh2009,http://dx.doi.org/10.1007/978-3-540-88201-5_24,,60.64,1,5,5,12.128,Brant,http://dx.doi.org/10.1016/j.jssc.2010.06.002,174464,0.2371801242,221,48
,774,300,0.0000230891,0.000122133,0.77,0.2517036856,0.000122133,0.1938118379,0.0006460394597,Zn4Sb3,-Zn4Sb3,0.09,Zn4Sb3,,"solid state reaction, Ar",polycrystalline,Toberer2010JMC,http://dx.doi.org/10.1039/c0jm02011g,,1610.64,9,7,63,25.56571429,Mayer,http://dx.doi.org/10.1016/0022-5088(78)90109-1,52403,0.4117307953,167,12
,775,400,0.0000266982,0.000148361,0.74,0.4456416704,0.000148361,0.3297748361,0.0008244370902,Zn4Sb3,-Zn4Sb3,0.09,Zn4Sb3,,"solid state reaction, Ar",polycrystalline,Toberer2010JMC,http://dx.doi.org/10.1039/c0jm02011g,,1610.64,9,7,63,25.56571429,Mayer,http://dx.doi.org/10.1016/0022-5088(78)90109-1,52403,0.4940104273,167,12
,776,700,0.0000335417,0.000184769,0.74,0.9628075046,0.000184769,0.7124775534,0.001017825076,Zn4Sb3,-Zn4Sb3,0.09,Zn4Sb3,,"solid state reaction, Ar",polycrystalline,Toberer2010JMC,http://dx.doi.org/10.1039/c0jm02011g,,1610.64,9,7,63,25.56571429,Mayer,http://dx.doi.org/10.1016/0022-5088(78)90109-1,52403,0.688130926,167,12
,777,300,0.0000212594,0.000126887,0.76,0.2989447411,0.000126887,0.2271980033,0.0007573266776,Zn4Sb3,-Zn4Sb3,0.08,Zn4Sb3,,"solid state reaction, Ar",polycrystalline,Toberer2010JMC,http://dx.doi.org/10.1039/c0jm02011g,,1610.64,9,7,63,25.56571429,Mayer,http://dx.doi.org/10.1016/0022-5088(78)90109-1,52403,0.4530503658,167,12
,778,400,0.000024668,0.000155085,0.743,0.5249003068,0.000155085,0.3900009279,0.0009750023198,Zn4Sb3,-Zn4Sb3,0.08,Zn4Sb3,,"solid state reaction, Ar",polycrystalline,Toberer2010JMC,http://dx.doi.org/10.1039/c0jm02011g,,1610.64,9,7,63,25.56571429,Mayer,http://dx.doi.org/10.1016/0022-5088(78)90109-1,52403,0.5325091372,167,12
,779,700,0.0000316607,0.000188372,0.743,1.055896648,0.000188372,0.7845312096,0.001120758871,Zn4Sb3,-Zn4Sb3,0.08,Zn4Sb3,,"solid state reaction, Ar",polycrystalline,Toberer2010JMC,http://dx.doi.org/10.1039/c0jm02011g,,1610.64,9,7,63,25.56571429,Mayer,http://dx.doi.org/10.1016/0022-5088(78)90109-1,52403,0.7260700788,167,12
,780,300,0.0000217354,0.000135898,0.783,0.3255502148,0.000135898,0.2549058182,0.0008496860607,Zn4Sb3,-Zn4Sb3,0.075,Zn4Sb3,,"solid state reaction, Ar",polycrystalline,Toberer2010JMC,http://dx.doi.org/10.1039/c0jm02011g,,1610.64,9,7,63,25.56571429,Mayer,http://dx.doi.org/10.1016/0022-5088(78)90109-1,52403,0.4301121214,167,12
,781,400,0.000025094,0.000160988,0.75,0.5508277919,0.000160988,0.4131208439,0.00103280211,Zn4Sb3,-Zn4Sb3,0.075,Zn4Sb3,,"solid state reaction, Ar",polycrystalline,Toberer2010JMC,http://dx.doi.org/10.1039/c0jm02011g,,1610.64,9,7,63,25.56571429,Mayer,http://dx.doi.org/10.1016/0022-5088(78)90109-1,52403,0.5185834595,167,12
,782,700,0.0000328897,0.000191811,0.75,1.044056216,0.000191811,0.7830421623,0.00111863166,Zn4Sb3,-Zn4Sb3,0.075,Zn4Sb3,,"solid state reaction, Ar",polycrystalline,Toberer2010JMC,http://dx.doi.org/10.1039/c0jm02011g,,1610.64,9,7,63,25.56571429,Mayer,http://dx.doi.org/10.1016/0022-5088(78)90109-1,52403,0.692415356,167,12
,783,300,0.002597,-0.000301,48.7,0.0002149083724,0.000301,0.01046603774,0.00003488679245,ZnO,(Zn1-xAlx)O,0,ZnO,,"solid state reaction, air",polycrystalline,Tsubota1997JMC,http://dx.doi.org/10.1039/A602506D,,47.62,2,2,4,11.905,Abrahams,http://dx.doi.org/10.1107/S0567740869003876,26170,0.0000008892432197,186,12
,784,400,0.003891,-0.000293962,33.22,0.0002674123862,0.000293962,0.00888343947,0.00002220859867,ZnO,(Zn1-xAlx)O,0,ZnO,,"solid state reaction, air",polycrystalline,Tsubota1997JMC,http://dx.doi.org/10.1039/A602506D,,47.62,2,2,4,11.905,Abrahams,http://dx.doi.org/10.1107/S0567740869003876,26170,0.000007334513666,186,12
,785,700,0.01786,-0.000329869,14.65,0.0002911132472,0.000329869,0.004264809071,0.000006092584388,ZnO,(Zn1-xAlx)O,0,ZnO,,"solid state reaction, air",polycrystalline,Tsubota1997JMC,http://dx.doi.org/10.1039/A602506D,,47.62,2,2,4,11.905,Abrahams,http://dx.doi.org/10.1107/S0567740869003876,26170,0.001089448674,186,12
,786,1000,0.0297,-0.000436926,8.58,0.0007491556179,0.000436926,0.006427755201,0.000006427755201,ZnO,(Zn1-xAlx)O,0,ZnO,,"solid state reaction, air",polycrystalline,Tsubota1997JMC,http://dx.doi.org/10.1039/A602506D,,47.62,2,2,4,11.905,Abrahams,http://dx.doi.org/10.1107/S0567740869003876,26170,0.005980275058,186,12
,787,300,0.00005623413252,-0.000154022,44.495,0.002844301043,0.000154022,0.1265571749,0.0004218572497,Zn0.995Al0.005O,(Zn1-xAlx)O,0.005,ZnO,,"solid state reaction, air",polycrystalline,Tsubota1997JMC,http://dx.doi.org/10.1039/A602506D,,47.62,2,2,4,11.905,Abrahams,http://dx.doi.org/10.1107/S0567740869003876,26170,0.002543878908,186,12
,788,400,0.00006165950019,-0.000190595,30.21,0.007800676589,0.000190595,0.2356584398,0.0005891460994,Zn0.995Al0.005O,(Zn1-xAlx)O,0.005,ZnO,,"solid state reaction, air",polycrystalline,Tsubota1997JMC,http://dx.doi.org/10.1039/A602506D,,47.62,2,2,4,11.905,Abrahams,http://dx.doi.org/10.1107/S0567740869003876,26170,0.004803335055,186,12
,789,700,0.00009120108394,-0.000166107,13.525,0.0156580125,0.000166107,0.2117746191,0.0003025351702,Zn0.995Al0.005O,(Zn1-xAlx)O,0.005,ZnO,,"solid state reaction, air",polycrystalline,Tsubota1997JMC,http://dx.doi.org/10.1039/A602506D,,47.62,2,2,4,11.905,Abrahams,http://dx.doi.org/10.1107/S0567740869003876,26170,0.01198201464,186,12
,790,1000,0.000087096359,-0.000231536,8.25,0.07460760586,0.000231536,0.6155127483,0.0006155127483,Zn0.995Al0.005O,(Zn1-xAlx)O,0.005,ZnO,,"solid state reaction, air",polycrystalline,Tsubota1997JMC,http://dx.doi.org/10.1039/A602506D,,47.62,2,2,4,11.905,Abrahams,http://dx.doi.org/10.1107/S0567740869003876,26170,0.02946620897,186,12
,791,300,0.00002754228703,-0.000178859,44.495,0.007831259951,0.000178859,0.3484519115,0.001161506372,Zn0.99Al0.01O,(Zn1-xAlx)O,0.01,ZnO,,"solid state reaction, air",polycrystalline,Tsubota1997JMC,http://dx.doi.org/10.1039/A602506D,,47.62,2,2,4,11.905,Abrahams,http://dx.doi.org/10.1107/S0567740869003876,26170,0.005131222115,186,12
,792,400,0.00003388441561,-0.000204023,30.21,0.01626550399,0.000204023,0.4913808755,0.001228452189,Zn0.99Al0.01O,(Zn1-xAlx)O,0.01,ZnO,,"solid state reaction, air",polycrystalline,Tsubota1997JMC,http://dx.doi.org/10.1039/A602506D,,47.62,2,2,4,11.905,Abrahams,http://dx.doi.org/10.1107/S0567740869003876,26170,0.008191777027,186,12
,793,700,0.00003981071706,-0.000182219,13.525,0.04316662397,0.000182219,0.5838285892,0.0008340408417,Zn0.99Al0.01O,(Zn1-xAlx)O,0.01,ZnO,,"solid state reaction, air",polycrystalline,Tsubota1997JMC,http://dx.doi.org/10.1039/A602506D,,47.62,2,2,4,11.905,Abrahams,http://dx.doi.org/10.1107/S0567740869003876,26170,0.02530100495,186,12
,794,1000,0.00004570881896,-0.000167118,8.25,0.07406150116,0.000167118,0.6110073845,0.0006110073845,Zn0.99Al0.01O,(Zn1-xAlx)O,0.01,ZnO,,"solid state reaction, air",polycrystalline,Tsubota1997JMC,http://dx.doi.org/10.1039/A602506D,,47.62,2,2,4,11.905,Abrahams,http://dx.doi.org/10.1107/S0567740869003876,26170,0.05506917333,186,12
,795,300,0.00001202264435,-0.000137914,40.29,0.0117798754,0.000137914,0.4746111799,0.001582037266,Zn0.98Al0.02O,(Zn1-xAlx)O,0.02,ZnO,,"solid state reaction, air",polycrystalline,Tsubota1997JMC,http://dx.doi.org/10.1039/A602506D,,47.62,2,2,4,11.905,Abrahams,http://dx.doi.org/10.1107/S0567740869003876,26170,0.01414760328,186,12
,796,400,0.00001288249552,-0.000147654,27.2,0.02488751419,0.000147654,0.6769403859,0.001692350965,Zn0.98Al0.02O,(Zn1-xAlx)O,0.02,ZnO,,"solid state reaction, air",polycrystalline,Tsubota1997JMC,http://dx.doi.org/10.1039/A602506D,,47.62,2,2,4,11.905,Abrahams,http://dx.doi.org/10.1107/S0567740869003876,26170,0.02527359176,186,12
,797,700,0.00001479108388,-0.00017148,12.4,0.1122285378,0.00017148,1.391633868,0.001988048383,Zn0.98Al0.02O,(Zn1-xAlx)O,0.02,ZnO,,"solid state reaction, air",polycrystalline,Tsubota1997JMC,http://dx.doi.org/10.1039/A602506D,,47.62,2,2,4,11.905,Abrahams,http://dx.doi.org/10.1107/S0567740869003876,26170,0.07549828323,186,12
,798,1000,0.00001819700859,-0.000175,7.92,0.2124960765,0.000175,1.682968926,0.001682968926,Zn0.98Al0.02O,(Zn1-xAlx)O,0.02,ZnO,,"solid state reaction, air",polycrystalline,Tsubota1997JMC,http://dx.doi.org/10.1039/A602506D,,47.62,2,2,4,11.905,Abrahams,http://dx.doi.org/10.1107/S0567740869003876,26170,0.1368482626,186,12
,799,300,0.00001318256739,-0.000174827,34.5,0.02016132962,0.000174827,0.695565872,0.002318552907,Zn0.95Al0.05O,(Zn1-xAlx)O,0.05,ZnO,,"solid state reaction, air",polycrystalline,Tsubota1997JMC,http://dx.doi.org/10.1039/A602506D,,47.62,2,2,4,11.905,Abrahams,http://dx.doi.org/10.1107/S0567740869003876,26170,0.01463357113,186,12
,800,400,0.00001548816619,-0.000173816,20.25,0.03853137139,0.000173816,0.7802602706,0.001950650677,Zn0.95Al0.05O,(Zn1-xAlx)O,0.05,ZnO,,"solid state reaction, air",polycrystalline,Tsubota1997JMC,http://dx.doi.org/10.1039/A602506D,,47.62,2,2,4,11.905,Abrahams,http://dx.doi.org/10.1107/S0567740869003876,26170,0.02742506983,186,12