# Outliers,Original Index,Temperature (K),Electrical Resistivity (Ohm m),Seebeck Coefficient (V/K),Thermal Conductivity (W/(m K)),Figure of Merit,Thermopower (V/K),Thermal Conductivity x Figure of Merit (W/m K),Power Factor (W/(K^2 m)),Formula,Series,Series Index,Family,Electrical Conductivity (S/m),Preparative Route,Final Form,Authors,DOI,Comments,Cell Volume (A^3),Formula Units per Cell,Atoms per Formula Unit,Total Atoms Per Unit Cell,Average Atomic Volume,Author of Unit Cell,Unit Cell DOI,ICSD ID,Electronic over Total Thermal Conductivity,Space Group,Number of Symmetry Elements
,860,300,0.0000152,-0.0000829,7.13,0.01902379678,0.0000829,0.1356396711,0.0004521322368,Mg2Si0.98Bi0.02,Mg2Si1-x-y-zBixGeyAgz,,Mg2Si,,"solid state reaction, He/H2",polycrystalline,Mars2009JEM,http://dx.doi.org/10.1007/s11664-009-0735-1,,258.55,4,3,12,21.54583333,Saravanan,http://dx.doi.org/10.1016/j.jallcom.2008.12.117,163708,0.06754262936,225,192
,861,400,0.0000121,-0.0001103,5.63,0.07143602014,0.0001103,0.4021847934,0.001005461983,Mg2Si0.98Bi0.02,Mg2Si1-x-y-zBixGeyAgz,,Mg2Si,,"solid state reaction, He/H2",polycrystalline,Mars2009JEM,http://dx.doi.org/10.1007/s11664-009-0735-1,,258.55,4,3,12,21.54583333,Saravanan,http://dx.doi.org/10.1016/j.jallcom.2008.12.117,163708,0.1432702611,225,192
,862,700,0.00001247,-0.0001749,3.6,0.4769893745,0.0001749,1.717161748,0.002453088212,Mg2Si0.98Bi0.02,Mg2Si1-x-y-zBixGeyAgz,,Mg2Si,,"solid state reaction, He/H2",polycrystalline,Mars2009JEM,http://dx.doi.org/10.1007/s11664-009-0735-1,,258.55,4,3,12,21.54583333,Saravanan,http://dx.doi.org/10.1016/j.jallcom.2008.12.117,163708,0.3804686804,225,192
,863,1000,0.00001857,-0.0002123,2.75,0.8825826602,0.0002123,2.427102316,0.002427102316,Mg2Si0.98Bi0.02,Mg2Si1-x-y-zBixGeyAgz,,Mg2Si,,"solid state reaction, He/H2",polycrystalline,Mars2009JEM,http://dx.doi.org/10.1007/s11664-009-0735-1,,258.55,4,3,12,21.54583333,Saravanan,http://dx.doi.org/10.1016/j.jallcom.2008.12.117,163708,0.4777989915,225,192
,864,300,0.000015,-0.000083,2.98,0.04623489933,0.000083,0.13778,0.0004592666667,Mg2Si0.6Ge0.4Bi0.02,Mg2Si1-x-y-zBixGeyAgz,,Mg2Si,,"solid state reaction, He/H2",polycrystalline,Mars2009JEM,http://dx.doi.org/10.1007/s11664-009-0735-1,,258.35,4,3,12,21.52916667,Ihou-Mouko,http://dx.doi.org/10.1016/j.jallcom.2011.03.081,180947,0.1637583893,225,192
,865,400,0.0000127,-0.0001175,2.62,0.1659704274,0.0001175,0.4348425197,0.001087106299,Mg2Si0.6Ge0.4Bi0.02,Mg2Si1-x-y-zBixGeyAgz,,Mg2Si,,"solid state reaction, He/H2",polycrystalline,Mars2009JEM,http://dx.doi.org/10.1007/s11664-009-0735-1,,258.35,4,3,12,21.52916667,Ihou-Mouko,http://dx.doi.org/10.1016/j.jallcom.2011.03.081,180947,0.2933221134,225,192
,866,700,0.0000137,-0.0001762,1.94,0.8176878621,0.0001762,1.586314453,0.002266163504,Mg2Si0.6Ge0.4Bi0.02,Mg2Si1-x-y-zBixGeyAgz,,Mg2Si,,"solid state reaction, He/H2",polycrystalline,Mars2009JEM,http://dx.doi.org/10.1007/s11664-009-0735-1,,258.35,4,3,12,21.52916667,Ihou-Mouko,http://dx.doi.org/10.1016/j.jallcom.2011.03.081,180947,0.6426367673,225,192
,867,1000,0.000022,-0.0001877,1.73,0.9256776143,0.0001877,1.601422273,0.001601422273,Mg2Si0.6Ge0.4Bi0.02,Mg2Si1-x-y-zBixGeyAgz,,Mg2Si,,"solid state reaction, He/H2",polycrystalline,Mars2009JEM,http://dx.doi.org/10.1007/s11664-009-0735-1,,258.35,4,3,12,21.52916667,Ihou-Mouko,http://dx.doi.org/10.1016/j.jallcom.2011.03.081,180947,0.641093011,225,192
,868,300,0.0124,0.000026,7.83,0.000002088740576,0.000026,0.00001635483871,0.00000005451612903,Mg2Si0.98Ag0.02,Mg2Si1-x-y-zBixGeyAgz,,Mg2Si,,"solid state reaction, He/H2",polycrystalline,Mars2009JEM,http://dx.doi.org/10.1007/s11664-009-0735-1,,258.55,4,3,12,21.54583333,Saravanan,http://dx.doi.org/10.1016/j.jallcom.2008.12.117,163708,0.00007539241132,225,192
,869,400,0.00413,0.000178,6.06,0.0005063809044,0.000178,0.003068668281,0.000007671670702,Mg2Si0.98Ag0.02,Mg2Si1-x-y-zBixGeyAgz,,Mg2Si,,"solid state reaction, He/H2",polycrystalline,Mars2009JEM,http://dx.doi.org/10.1007/s11664-009-0735-1,,258.55,4,3,12,21.54583333,Saravanan,http://dx.doi.org/10.1016/j.jallcom.2008.12.117,163708,0.0003899663574,225,192
,870,700,0.000397,0.000149,3.67,0.01066630519,0.000149,0.03914534005,0.00005592191436,Mg2Si0.98Ag0.02,Mg2Si1-x-y-zBixGeyAgz,,Mg2Si,,"solid state reaction, He/H2",polycrystalline,Mars2009JEM,http://dx.doi.org/10.1007/s11664-009-0735-1,,258.55,4,3,12,21.54583333,Saravanan,http://dx.doi.org/10.1016/j.jallcom.2008.12.117,163708,0.01172279837,225,192
,871,1000,0.000066,0.000192,3.16,0.1767548907,0.000192,0.5585454545,0.0005585454545,Mg2Si0.98Ag0.02,Mg2Si1-x-y-zBixGeyAgz,,Mg2Si,,"solid state reaction, He/H2",polycrystalline,Mars2009JEM,http://dx.doi.org/10.1007/s11664-009-0735-1,,258.55,4,3,12,21.54583333,Saravanan,http://dx.doi.org/10.1016/j.jallcom.2008.12.117,163708,0.1169927119,225,192
,872,300,0.000513,0.00003042,4.11,0.0001316680753,0.00003042,0.0005411557895,0.000001803852632,Mg2Si0.6Ge0.4Ag0.02,Mg2Si1-x-y-zBixGeyAgz,,Mg2Si,,"solid state reaction, He/H2",polycrystalline,Mars2009JEM,http://dx.doi.org/10.1007/s11664-009-0735-1,,258.35,4,3,12,21.52916667,Ihou-Mouko,http://dx.doi.org/10.1016/j.jallcom.2011.03.081,180947,0.003471777579,225,192
,873,400,0.000284,0.0001579,3.09,0.01136442408,0.0001579,0.03511607042,0.00008779017606,Mg2Si0.6Ge0.4Ag0.02,Mg2Si1-x-y-zBixGeyAgz,,Mg2Si,,"solid state reaction, He/H2",polycrystalline,Mars2009JEM,http://dx.doi.org/10.1007/s11664-009-0735-1,,258.35,4,3,12,21.52916667,Ihou-Mouko,http://dx.doi.org/10.1016/j.jallcom.2011.03.081,180947,0.01112174666,225,192
,874,700,0.000149,0.0003188,2.57,0.1857869793,0.0003188,0.4774725369,0.0006821036242,Mg2Si0.6Ge0.4Ag0.02,Mg2Si1-x-y-zBixGeyAgz,,Mg2Si,,"solid state reaction, He/H2",polycrystalline,Mars2009JEM,http://dx.doi.org/10.1007/s11664-009-0735-1,,258.35,4,3,12,21.52916667,Ihou-Mouko,http://dx.doi.org/10.1016/j.jallcom.2011.03.081,180947,0.04460345233,225,192
,875,1000,0.0000544,0.000224,3.48,0.2650439486,0.000224,0.9223529412,0.0009223529412,Mg2Si0.6Ge0.4Ag0.02,Mg2Si1-x-y-zBixGeyAgz,,Mg2Si,,"solid state reaction, He/H2",polycrystalline,Mars2009JEM,http://dx.doi.org/10.1007/s11664-009-0735-1,,258.35,4,3,12,21.52916667,Ihou-Mouko,http://dx.doi.org/10.1016/j.jallcom.2011.03.081,180947,0.128887762,225,192
,876,300,0.002544,0.000388,0.2,0.08876415094,0.000388,0.01775283019,0.00005917610063,Ag9TlTe5,Ag9TlTe5,,Ag9TlTe5,,melted,polycrystalline,Kurosaki2005APL,http://dx.doi.org/10.1063/1.2009828,,4758.66,6,29,174,27.34862069,Paccard,http://dx.doi.org/10.1016/0925-8388(92)90508-7,71689,0.01438679245,167,12
,877,400,0.000832,0.000327,0.21,0.2448008242,0.000327,0.05140817308,0.0001285204327,Ag9TlTe5,Ag9TlTe5,,Ag9TlTe5,,melted,polycrystalline,Kurosaki2005APL,http://dx.doi.org/10.1063/1.2009828,,4758.66,6,29,174,27.34862069,Paccard,http://dx.doi.org/10.1016/0925-8388(92)90508-7,71689,0.05586080586,167,12
,878,700,0.000264,0.000311,0.2,1.282285985,0.000311,0.256457197,0.0003663674242,Ag9TlTe5,Ag9TlTe5,,Ag9TlTe5,,melted,polycrystalline,Kurosaki2005APL,http://dx.doi.org/10.1063/1.2009828,,4758.66,6,29,174,27.34862069,Paccard,http://dx.doi.org/10.1016/0925-8388(92)90508-7,71689,0.3234848485,167,12
,879,300,0.000042,0.000219,5.09,0.067304238,0.000219,0.3425785714,0.001141928571,Tl2SnTe5,TST,,Tl2SnTe5,,melted,polycrystalline,Sharp1999APL,http://dx.doi.org/10.1063/1.124182,,1045.95,4,8,32,32.6859375,Agafonov,http://dx.doi.org/10.1107/S0108270190011362,73666,0.03424080831,140,32
,880,300,0.0002314,0.000285,9.07,0.0116102169,0.000285,0.1053046672,0.0003510155575,Tl2GeTe5,TGT,,Tl2GeTe5,,melted,polycrystalline,Sharp1999APL,http://dx.doi.org/10.1063/1.124182,,2027.01,8,8,64,31.67203125,Toure,http://dx.doi.org/10.1016/0022-4596(90)90323-P,68855,0.003487710585,65,16
,881,300,0.0000433,0.000163,6.75,0.02727123428,0.000163,0.1840808314,0.0006136027714,Tl2SnTe5,hotpressed TST,,Tl2SnTe5,,"melted, hotpressed",polycrystalline,Sharp1999APL,http://dx.doi.org/10.1063/1.124182,,1045.95,4,8,32,32.6859375,Agafonov,http://dx.doi.org/10.1107/S0108270190011362,73666,0.02504490634,140,32
,882,300,0.0000321,0.000145,,,0.000145,0.1964953271,0.0006549844237,Tl2SnTe5,single Xtal TST,,Tl2SnTe5,,flux (TlTe2),single crystal,Sharp1999APL,http://dx.doi.org/10.1063/1.124182,,1045.95,4,8,32,32.6859375,Agafonov,http://dx.doi.org/10.1107/S0108270190011362,73666,,140,32
,883,300,0.000129,-0.00032,0.81,0.2939994258,0.00032,0.2381395349,0.0007937984496,Sr0.145Ga0.302Ge0.553,Sr8Ga16Ge30,,Sr8Ga16Ge30,,solid state reaction,polycrystalline,Nolas1998APL,http://dx.doi.org/10.1063/1.121747,,1233.18,1,48,48,25.69125,Chakoumakos,http://dx.doi.org/10.1016/S0925-8388(99)00531-9,90177,0.07005455067,223,48
,884,300,0.0000262,-0.000154,1.216,0.2233201085,0.000154,0.2715572519,0.0009051908397,Sr0.147Ga0.298Ge0.555,Sr8Ga16Ge30,,Sr8Ga16Ge30,,solid state reaction,polycrystalline,Nolas1998APL,http://dx.doi.org/10.1063/1.121747,,1233.18,1,48,48,25.69125,Chakoumakos,http://dx.doi.org/10.1016/S0925-8388(99)00531-9,90177,0.2297609482,223,48
,885,300,0.0000194,-0.000128,1.06,0.239019646,0.000128,0.2533608247,0.0008445360825,Sr0.146Ga0.285Ge0.569,Sr8Ga16Ge30,,Sr8Ga16Ge30,,solid state reaction,polycrystalline,Nolas1998APL,http://dx.doi.org/10.1063/1.121747,,1233.18,1,48,48,25.69125,Chakoumakos,http://dx.doi.org/10.1016/S0925-8388(99)00531-9,90177,0.3559618751,223,48
,886,300,0.00002817,0.000149,2,0.1182161874,0.000149,0.2364323749,0.0007881079162,Ba8Ga16Ge30,Ba8GaxGe46-x,,Ba8GaxGe46-x,,arc melting,polycrystalline,Anno2002ICT,http://dx.doi.org/10.1109/ICT.2002.1190269,,1254.12,1,54,54,23.22444444,Paschen,http://dx.doi.org/10.1103/PhysRevB.64.214404,94298,0.1299254526,223,48
,887,400,0.00003049,0.000185,2,0.224499836,0.000185,0.448999672,0.00112249918,Ba8Ga16Ge30,Ba8GaxGe46-x,,Ba8GaxGe46-x,,arc melting,polycrystalline,Anno2002ICT,http://dx.doi.org/10.1109/ICT.2002.1190269,,1254.12,1,54,54,23.22444444,Paschen,http://dx.doi.org/10.1103/PhysRevB.64.214404,94298,0.1600524762,223,48
,888,700,0.0000463,0.000288,2,0.6270064795,0.000288,1.254012959,0.001791447084,Ba8Ga16Ge30,Ba8GaxGe46-x,,Ba8GaxGe46-x,,arc melting,polycrystalline,Anno2002ICT,http://dx.doi.org/10.1109/ICT.2002.1190269,,1254.12,1,54,54,23.22444444,Paschen,http://dx.doi.org/10.1103/PhysRevB.64.214404,94298,0.1844492441,223,48
,889,1000,0.0000625,0.000289,2,0.668168,0.000289,1.336336,0.001336336,Ba8Ga16Ge30,Ba8GaxGe46-x,,Ba8GaxGe46-x,,arc melting,polycrystalline,Anno2002ICT,http://dx.doi.org/10.1109/ICT.2002.1190269,,1254.12,1,54,54,23.22444444,Paschen,http://dx.doi.org/10.1103/PhysRevB.64.214404,94298,0.1952,223,48
,890,300,0.00007764,-0.0000789,1.5,0.01603608964,0.0000789,0.02405413447,0.00008018044822,Ba8Ga18Ge28,Ba8GaxGe46-x,,Ba8GaxGe46-x,,arc melting,polycrystalline,Anno2002ICT,http://dx.doi.org/10.1109/ICT.2002.1190269,,1254.12,1,54,54,23.22444444,Paschen,http://dx.doi.org/10.1103/PhysRevB.64.214404,94298,0.06285419887,223,48
,891,400,0.00007143,-0.0001129,1.4,0.05098462031,0.0001129,0.07137846843,0.0001784461711,Ba8Ga18Ge28,Ba8GaxGe46-x,,Ba8GaxGe46-x,,arc melting,polycrystalline,Anno2002ICT,http://dx.doi.org/10.1109/ICT.2002.1190269,,1254.12,1,54,54,23.22444444,Paschen,http://dx.doi.org/10.1103/PhysRevB.64.214404,94298,0.09759804804,223,48
,892,700,0.00007418,-0.000219,1.1,0.4114402314,0.000219,0.4525842545,0.000646548935,Ba8Ga18Ge28,Ba8GaxGe46-x,,Ba8GaxGe46-x,,arc melting,polycrystalline,Anno2002ICT,http://dx.doi.org/10.1109/ICT.2002.1190269,,1254.12,1,54,54,23.22444444,Paschen,http://dx.doi.org/10.1103/PhysRevB.64.214404,94298,0.2093188559,223,48
,893,1000,0.0000735,-0.000266,1,0.9626666667,0.000266,0.9626666667,0.0009626666667,Ba8Ga18Ge28,Ba8GaxGe46-x,,Ba8GaxGe46-x,,arc melting,polycrystalline,Anno2002ICT,http://dx.doi.org/10.1109/ICT.2002.1190269,,1254.12,1,54,54,23.22444444,Paschen,http://dx.doi.org/10.1103/PhysRevB.64.214404,94298,0.3319727891,223,48
,894,300,0.000111,-0.0001886,,,0.0001886,0.09613502703,0.0003204500901,Ba8Ga16Sn30,Ba8Ga16Sn30,,Ba8GaxSn46-x,,"melted, Ar",polycrystalline,Kuznetsov1999ICT,http://dx.doi.org/10.1109/ICT.1999.843362,,1595.46,1,54,54,29.54555556,Suekuni,http://dx.doi.org/10.1103/PhysRevB.77.235119,161949,,223,48
,895,400,0.000115,-0.000233,,,0.000233,0.1888313043,0.0004720782609,Ba8Ga16Sn30,Ba8Ga16Sn30,,Ba8GaxSn46-x,,"melted, Ar",polycrystalline,Kuznetsov1999ICT,http://dx.doi.org/10.1109/ICT.1999.843362,,1595.46,1,54,54,29.54555556,Suekuni,http://dx.doi.org/10.1103/PhysRevB.77.235119,161949,,223,48
,896,700,0.0000694,-0.000138,,,0.000138,0.1920864553,0.0002744092219,Ba8Ga16Sn30,Ba8Ga16Sn30,,Ba8GaxSn46-x,,"melted, Ar",polycrystalline,Kuznetsov1999ICT,http://dx.doi.org/10.1109/ICT.1999.843362,,1595.46,1,54,54,29.54555556,Suekuni,http://dx.doi.org/10.1103/PhysRevB.77.235119,161949,,223,48
,897,300,0.00000786,-0.0000719,,,0.0000719,0.1973133588,0.0006577111959,Sr8Ga16Ge30,Sr8Ga16Ge30,,Sr8GaxGe46-x,,"melted, Ar",polycrystalline,Kuznetsov1999ICT,http://dx.doi.org/10.1109/ICT.1999.843362,,1233.18,1,54,54,22.83666667,Chakoumakos,http://dx.doi.org/10.1016/S0925-8388(99)00531-9,90177,,223,48
,898,400,0.00000914,-0.0000949,,,0.0000949,0.394136105,0.0009853402626,Sr8Ga16Ge30,Sr8Ga16Ge30,,Sr8GaxGe46-x,,"melted, Ar",polycrystalline,Kuznetsov1999ICT,http://dx.doi.org/10.1109/ICT.1999.843362,,1233.18,1,54,54,22.83666667,Chakoumakos,http://dx.doi.org/10.1016/S0925-8388(99)00531-9,90177,,223,48
,899,700,0.0000141,-0.000139,,,0.000139,0.9591985816,0.001370283688,Sr8Ga16Ge30,Sr8Ga16Ge30,,Sr8GaxGe46-x,,"melted, Ar",polycrystalline,Kuznetsov1999ICT,http://dx.doi.org/10.1109/ICT.1999.843362,,1233.18,1,54,54,22.83666667,Chakoumakos,http://dx.doi.org/10.1016/S0925-8388(99)00531-9,90177,,223,48
,900,300,0.00000669,-0.000062,,,0.000062,0.1723766816,0.0005745889387,Ba8Ga16Ge30,Ba8Ga16Ge30,,Ba8GaxGe46-x,,"melted, Ar",polycrystalline,Kuznetsov1999ICT,http://dx.doi.org/10.1109/ICT.1999.843362,,1254.12,1,54,54,23.22444444,Paschen,http://dx.doi.org/10.1103/PhysRevB.64.214404,94298,,223,48
,901,400,0.0000084,-0.0001008,,,0.0001008,0.48384,0.0012096,Ba8Ga16Ge30,Ba8Ga16Ge30,,Ba8GaxGe46-x,,"melted, Ar",polycrystalline,Kuznetsov1999ICT,http://dx.doi.org/10.1109/ICT.1999.843362,,1254.12,1,54,54,23.22444444,Paschen,http://dx.doi.org/10.1103/PhysRevB.64.214404,94298,,223,48
,902,700,0.0000141,-0.000186,,,0.000186,1.717531915,0.002453617021,Ba8Ga16Ge30,Ba8Ga16Ge30,,Ba8GaxGe46-x,,"melted, Ar",polycrystalline,Kuznetsov1999ICT,http://dx.doi.org/10.1109/ICT.1999.843362,,1254.12,1,54,54,23.22444444,Paschen,http://dx.doi.org/10.1103/PhysRevB.64.214404,94298,,223,48
,903,300,0.0000122,-0.0000493,,,0.0000493,0.05976614754,0.0001992204918,Ba8Ga16Si30,Ba8Ga16Si30,,Ba8GaxSi46-x,,"melted, Ar",polycrystalline,Kuznetsov1999ICT,http://dx.doi.org/10.1109/ICT.1999.843362,,1254.12,1,54,54,23.22444444,Paschen,http://dx.doi.org/10.1103/PhysRevB.64.214404,94298,,223,48
,904,400,0.0000133,-0.0000628,,,0.0000628,0.1186117293,0.0002965293233,Ba8Ga16Si30,Ba8Ga16Si30,,Ba8GaxSi46-x,,"melted, Ar",polycrystalline,Kuznetsov1999ICT,http://dx.doi.org/10.1109/ICT.1999.843362,,1254.12,1,54,54,23.22444444,Paschen,http://dx.doi.org/10.1103/PhysRevB.64.214404,94298,,223,48
,905,700,0.0000187,-0.000111,,,0.000111,0.4612139037,0.0006588770053,Ba8Ga16Si30,Ba8Ga16Si30,,Ba8GaxSi46-x,,"melted, Ar",polycrystalline,Kuznetsov1999ICT,http://dx.doi.org/10.1109/ICT.1999.843362,,1254.12,1,54,54,23.22444444,Paschen,http://dx.doi.org/10.1103/PhysRevB.64.214404,94298,,223,48
,906,300,0.00001623,-0.000089,4.5,0.03253645512,0.000089,0.1464140481,0.0004880468269,Mg2Si,Mg2-xCaxSi,0,Mg2Si,,"melted, Ar",polycrystalline,Zhang2008JAC,http://dx.doi.org/10.1016/j.jallcom.2007.09.101,,258.55,4,3,12,21.54583333,Saravanan,http://dx.doi.org/10.1016/j.jallcom.2008.12.117,163708,0.1002259191,225,192
,907,400,0.00001976,-0.000189,4,0.1807742915,0.000189,0.723097166,0.001807742915,Mg2Si,Mg2-xCaxSi,0,Mg2Si,,"melted, Ar",polycrystalline,Zhang2008JAC,http://dx.doi.org/10.1016/j.jallcom.2007.09.101,,258.55,4,3,12,21.54583333,Saravanan,http://dx.doi.org/10.1016/j.jallcom.2008.12.117,163708,0.1234817814,225,192
,908,700,0.00003802,-0.000267,3.25,0.4038546514,0.000267,1.312527617,0.001875039453,Mg2Si,Mg2-xCaxSi,0,Mg2Si,,"melted, Ar",polycrystalline,Zhang2008JAC,http://dx.doi.org/10.1016/j.jallcom.2007.09.101,,258.55,4,3,12,21.54583333,Saravanan,http://dx.doi.org/10.1016/j.jallcom.2008.12.117,163708,0.1382268442,225,192
,909,300,0.00001037,-0.0000748,5.6,0.02890398126,0.0000748,0.1618622951,0.0005395409836,Mg1.95Ca0.05Si,Mg2-xCaxSi,0.05,Mg2Si,,"melted, Ar",polycrystalline,Zhang2008JAC,http://dx.doi.org/10.1016/j.jallcom.2007.09.101,,258.55,4,3,12,21.54583333,Saravanan,http://dx.doi.org/10.1016/j.jallcom.2008.12.117,163708,0.1260504202,225,192
,910,400,0.0000115,-0.0000948,4.9,0.06379442768,0.0000948,0.3125926957,0.0007814817391,Mg1.95Ca0.05Si,Mg2-xCaxSi,0.05,Mg2Si,,"melted, Ar",polycrystalline,Zhang2008JAC,http://dx.doi.org/10.1016/j.jallcom.2007.09.101,,258.55,4,3,12,21.54583333,Saravanan,http://dx.doi.org/10.1016/j.jallcom.2008.12.117,163708,0.1732031943,225,192
,911,700,0.00002554,-0.000153,3.8,0.1688404154,0.000153,0.6415935787,0.0009165622553,Mg1.95Ca0.05Si,Mg2-xCaxSi,0.05,Mg2Si,,"melted, Ar",polycrystalline,Zhang2008JAC,http://dx.doi.org/10.1016/j.jallcom.2007.09.101,,258.55,4,3,12,21.54583333,Saravanan,http://dx.doi.org/10.1016/j.jallcom.2008.12.117,163708,0.1759881301,225,192
,912,300,0.00002117,-0.000061,5.2,0.01014043821,0.000061,0.0527302787,0.0001757675957,Mg1.9Ca0.1Si,Mg2-xCaxSi,0.1,Mg2Si,,"melted, Ar",polycrystalline,Zhang2008JAC,http://dx.doi.org/10.1016/j.jallcom.2007.09.101,,258.55,4,3,12,21.54583333,Saravanan,http://dx.doi.org/10.1016/j.jallcom.2008.12.117,163708,0.06649467679,225,192
,913,400,0.00002141,-0.000074,4.7,0.02176751766,0.000074,0.102307333,0.0002557683326,Mg1.9Ca0.1Si,Mg2-xCaxSi,0.1,Mg2Si,,"melted, Ar",polycrystalline,Zhang2008JAC,http://dx.doi.org/10.1016/j.jallcom.2007.09.101,,258.55,4,3,12,21.54583333,Saravanan,http://dx.doi.org/10.1016/j.jallcom.2008.12.117,163708,0.09699186103,225,192
,914,700,0.00002751,-0.00013,3.8,0.1131645909,0.00013,0.4300254453,0.0006143220647,Mg1.9Ca0.1Si,Mg2-xCaxSi,0.1,Mg2Si,,"melted, Ar",polycrystalline,Zhang2008JAC,http://dx.doi.org/10.1016/j.jallcom.2007.09.101,,258.55,4,3,12,21.54583333,Saravanan,http://dx.doi.org/10.1016/j.jallcom.2008.12.117,163708,0.1633855631,225,192
,915,300,0.00001218,-0.000178,7.25,0.107640564,0.000178,0.7803940887,0.002601313629,Mg2Si,Mg2Si,,Mg2Si,,"Bridgman method, Ar-H gas",polycrystalline,Akasaka2007JCG,http://dx.doi.org/10.1016/j.jcrysgro.2006.10.270,,258.55,4,3,12,21.54583333,Saravanan,http://dx.doi.org/10.1016/j.jallcom.2008.12.117,163708,0.08289451333,225,192
,916,400,0.0000173,-0.000205,6.15,0.1579961464,0.000205,0.9716763006,0.002429190751,Mg2Si,Mg2Si,,Mg2Si,,"Bridgman method, Ar-H gas",polycrystalline,Akasaka2007JCG,http://dx.doi.org/10.1016/j.jcrysgro.2006.10.270,,258.55,4,3,12,21.54583333,Saravanan,http://dx.doi.org/10.1016/j.jallcom.2008.12.117,163708,0.0917336341,225,192
,917,700,0.00004125,-0.0002826,3.05,0.444343225,0.0002826,1.355246836,0.001936066909,Mg2Si,Mg2Si,,Mg2Si,,"Bridgman method, Ar-H gas",polycrystalline,Akasaka2007JCG,http://dx.doi.org/10.1016/j.jcrysgro.2006.10.270,,258.55,4,3,12,21.54583333,Saravanan,http://dx.doi.org/10.1016/j.jallcom.2008.12.117,163708,0.1357575758,225,192
,918,300,0.00001,0.00009,0.97,0.2505154639,0.00009,0.243,0.00081,Cu2Se,Cu2-xSe,,Cu2Se,,"melted, vacuum",polycrystalline,Liu2012NM,http://dx.doi.org/10.1038/nmat3273,,184.61,4,3,12,15.38416667,Yamamoto,http://dx.doi.org/10.1016/0022-4596(91)90289-T,41140,0.7546391753,225,192
,919,400,0.0000161,0.000107,1.04,0.2735069279,0.000107,0.284447205,0.0007111180124,Cu2Se,Cu2-xSe,,Cu2Se,,"melted, vacuum",polycrystalline,Liu2012NM,http://dx.doi.org/10.1038/nmat3274,,184.61,4,3,12,15.38416667,Yamamoto,http://dx.doi.org/10.1016/0022-4596(91)90289-T,41140,0.5828953655,225,192
,920,700,0.000042,0.000201,0.915,0.7359016393,0.000201,0.67335,0.0009619285714,Cu2Se,Cu2-xSe,,Cu2Se,,"melted, vacuum",polycrystalline,Liu2012NM,http://dx.doi.org/10.1038/nmat3275,,184.61,4,3,12,15.38416667,Yamamoto,http://dx.doi.org/10.1016/0022-4596(91)90289-T,41140,0.4444444444,225,192