# Outliers,Original Index,Temperature (K),Electrical Resistivity (Ohm m),Seebeck Coefficient (V/K),Thermal Conductivity (W/(m K)),Figure of Merit,Thermopower (V/K),Thermal Conductivity x Figure of Merit (W/m K),Power Factor (W/(K^2 m)),Formula,Series,Series Index,Family,Electrical Conductivity (S/m),Preparative Route,Final Form,Authors,DOI,Comments,Cell Volume (A^3),Formula Units per Cell,Atoms per Formula Unit,Total Atoms Per Unit Cell,Average Atomic Volume,Author of Unit Cell,Unit Cell DOI,ICSD ID,Electronic over Total Thermal Conductivity,Space Group,Number of Symmetry Elements
,1013,700,0.0009422584049,-0.000322973,4.7,0.01648779569,0.000322973,0.07749263973,0.000110703771,Fe1.96Ti0.04O3,(Fe1-xMx)2O3,0.02,Fe2TiO3,,"solid state reaction, air",polycrystalline,Muta2002JAC,http://dx.doi.org/10.1016/S0925-8388(01)01804-7,,101.11,2,5,10,10.111,Harrison,http://dx.doi.org/10.2138/​am.2010.3402,168009,38.56736681,2,2
,1014,1000,0.0007209961283,-0.000328378,3.54,0.04224856012,0.000328378,0.1495599028,0.0001495599028,Fe1.96Ti0.04O3,(Fe1-xMx)2O3,0.02,Fe2TiO3,,"solid state reaction, air",polycrystalline,Muta2002JAC,http://dx.doi.org/10.1016/S0925-8388(01)01804-7,,101.11,2,5,10,10.111,Harrison,http://dx.doi.org/10.2138/​am.2010.3402,168009,95.59906215,2,2
,1015,300,0.004115209402,-0.000335012,6.39,0.001280410375,0.000335012,0.008181822296,0.00002727274099,Fe1.94Ti0.06O3,(Fe1-xMx)2O3,0.03,Fe2TiO3,,"solid state reaction, air",polycrystalline,Muta2002JAC,http://dx.doi.org/10.1016/S0925-8388(01)01804-7,,101.11,2,5,10,10.111,Harrison,http://dx.doi.org/10.2138/​am.2010.3402,168009,2.783673427,2,2
,1016,400,0.002058985826,-0.000308722,5.93,0.003122389653,0.000308722,0.01851577064,0.00004628942661,Fe1.94Ti0.06O3,(Fe1-xMx)2O3,0.03,Fe2TiO3,,"solid state reaction, air",polycrystalline,Muta2002JAC,http://dx.doi.org/10.1016/S0925-8388(01)01804-7,,101.11,2,5,10,10.111,Harrison,http://dx.doi.org/10.2138/​am.2010.3402,168009,7.993588128,2,2
,1017,700,0.0007587080719,-0.000292015,4.34,0.01812775099,0.000292015,0.07867443931,0.0001123920562,Fe1.94Ti0.06O3,(Fe1-xMx)2O3,0.03,Fe2TiO3,,"solid state reaction, air",polycrystalline,Muta2002JAC,http://dx.doi.org/10.1016/S0925-8388(01)01804-7,,101.11,2,5,10,10.111,Harrison,http://dx.doi.org/10.2138/​am.2010.3402,168009,51.87085806,2,2
,1018,1000,0.0005756356457,-0.000294717,3.35,0.04504202311,0.000294717,0.1508907774,0.0001508907774,Fe1.94Ti0.06O3,(Fe1-xMx)2O3,0.03,Fe2TiO3,,"solid state reaction, air",polycrystalline,Muta2002JAC,http://dx.doi.org/10.1016/S0925-8388(01)01804-7,,101.11,2,5,10,10.111,Harrison,http://dx.doi.org/10.2138/​am.2010.3402,168009,126.5311164,2,2
,1094,300,0.0000390198306,-0.000043647359,2.42053025,0.006051197141,0.000043647359,0.01464710573,0.00004882368576,W0.08Nb0.92O2.54,WxNb1−xO2.5+0.5x−y,0.08,WO3-Nb2O5,,sparks plasma sintering,polycrystalline,Gaultois2015D,https://escholarship.org/uc/item/2g00r631,,,,,,,,,,0.07750240634,,
,1095,400,0.0000430894144,-0.000058451946,2.4051656,0.01318688942,0.000058451946,0.03171665281,0.00007929163203,W0.08Nb0.92O2.54,WxNb1−xO2.5+0.5x−y,0.08,WO3-Nb2O5,,sparks plasma sintering,polycrystalline,Gaultois2015D,https://escholarship.org/uc/item/2g00r632,,,,,,,,,,0.09417469927,,
,1096,700,0.0000564170866,-0.000098148999,2.38171745,0.05018441842,0.000098148999,0.1195251051,0.0001707501501,W0.08Nb0.92O2.54,WxNb1−xO2.5+0.5x−y,0.08,WO3-Nb2O5,,sparks plasma sintering,polycrystalline,Gaultois2015D,https://escholarship.org/uc/item/2g00r633,,,,,,,,,,0.1271121231,,
,1097,1000,0.00007142314,-0.00013077099,2.392238,0.1000874211,0.00013077099,0.239432932,0.000239432932,W0.08Nb0.92O2.54,WxNb1−xO2.5+0.5x−y,0.08,WO3-Nb2O5,,sparks plasma sintering,polycrystalline,Gaultois2015D,https://escholarship.org/uc/item/2g00r634,,,,,,,,,,0.1428060156,,